+ 0.5 0 2 tcp 40 ------- 1 0.0 4.0 0 0
- 0.5 0 2 tcp 40 ------- 1 0.0 4.0 0 0
+ 0.5 1 2 tcp 40 ------- 2 1.0 4.0 0 1
- 0.5 1 2 tcp 40 ------- 2 1.0 4.0 0 1
r 0.60016 0 2 tcp 40 ------- 1 0.0 4.0 0 0
+ 0.60016 2 3 tcp 40 ------- 1 0.0 4.0 0 0
- 0.60016 2 3 tcp 40 ------- 1 0.0 4.0 0 0
r 0.60016 1 2 tcp 40 ------- 2 1.0 4.0 0 1
+ 0.60016 2 3 tcp 40 ------- 2 1.0 4.0 0 1
- 0.60032 2 3 tcp 40 ------- 2 1.0 4.0 0 1
r 0.70032 2 3 tcp 40 ------- 1 0.0 4.0 0 0
+ 0.70032 3 4 tcp 40 ------- 1 0.0 4.0 0 0
- 0.70032 3 4 tcp 40 ------- 1 0.0 4.0 0 0
r 0.70048 2 3 tcp 40 ------- 2 1.0 4.0 0 1
+ 0.70048 3 4 tcp 40 ------- 2 1.0 4.0 0 1
- 0.70192 3 4 tcp 40 ------- 2 1.0 4.0 0 1
r 0.80192 3 4 tcp 40 ------- 1 0.0 4.0 0 0
+ 0.80192 4 3 ack 40 ------- 1 4.0 1.0 0 2
- 0.80192 4 3 ack 40 ------- 1 4.0 1.0 0 2
r 0.80352 3 4 tcp 40 ------- 2 1.0 4.0 0 1
+ 0.80352 4 3 ack 40 ------- 2 4.0 1.0 0 3
- 0.80352 4 3 ack 40 ------- 2 4.0 1.0 0 3
r 0.90352 4 3 ack 40 ------- 1 4.0 1.0 0 2
+ 0.90352 3 2 ack 40 ------- 1 4.0 1.0 0 2
- 0.90352 3 2 ack 40 ------- 1 4.0 1.0 0 2
r 0.90512 4 3 ack 40 ------- 2 4.0 1.0 0 3
+ 0.90512 3 2 ack 40 ------- 2 4.0 1.0 0 3
- 0.90512 3 2 ack 40 ------- 2 4.0 1.0 0 3
r 1.00368 3 2 ack 40 ------- 1 4.0 1.0 0 2
+ 1.00368 2 1 ack 40 ------- 1 4.0 1.0 0 2
- 1.00368 2 1 ack 40 ------- 1 4.0 1.0 0 2
r 1.00528 3 2 ack 40 ------- 2 4.0 1.0 0 3
+ 1.00528 2 1 ack 40 ------- 2 4.0 1.0 0 3
- 1.00528 2 1 ack 40 ------- 2 4.0 1.0 0 3
r 1.10384 2 1 ack 40 ------- 1 4.0 1.0 0 2
+ 1.10384 1 2 tcp 1040 ------- 2 1.0 4.0 1 4
- 1.10384 1 2 tcp 1040 ------- 2 1.0 4.0 1 4
+ 1.10384 1 2 tcp 1040 ------- 2 1.0 4.0 2 5
r 1.10544 2 1 ack 40 ------- 2 4.0 1.0 0 3
+ 1.10544 1 2 tcp 1040 ------- 2 1.0 4.0 3 6
- 1.108 1 2 tcp 1040 ------- 2 1.0 4.0 2 5
- 1.11216 1 2 tcp 1040 ------- 2 1.0 4.0 3 6
r 1.208 1 2 tcp 1040 ------- 2 1.0 4.0 1 4
+ 1.208 2 3 tcp 1040 ------- 2 1.0 4.0 1 4
- 1.208 2 3 tcp 1040 ------- 2 1.0 4.0 1 4
r 1.21216 1 2 tcp 1040 ------- 2 1.0 4.0 2 5
+ 1.21216 2 3 tcp 1040 ------- 2 1.0 4.0 2 5
- 1.21216 2 3 tcp 1040 ------- 2 1.0 4.0 2 5
r 1.21632 1 2 tcp 1040 ------- 2 1.0 4.0 3 6
+ 1.21632 2 3 tcp 1040 ------- 2 1.0 4.0 3 6
- 1.21632 2 3 tcp 1040 ------- 2 1.0 4.0 3 6
r 1.31216 2 3 tcp 1040 ------- 2 1.0 4.0 1 4
+ 1.31216 3 4 tcp 1040 ------- 2 1.0 4.0 1 4
- 1.31216 3 4 tcp 1040 ------- 2 1.0 4.0 1 4
r 1.31632 2 3 tcp 1040 ------- 2 1.0 4.0 2 5
+ 1.31632 3 4 tcp 1040 ------- 2 1.0 4.0 2 5
r 1.32048 2 3 tcp 1040 ------- 2 1.0 4.0 3 6
+ 1.32048 3 4 tcp 1040 ------- 2 1.0 4.0 3 6
- 1.35376 3 4 tcp 1040 ------- 2 1.0 4.0 2 5
- 1.39536 3 4 tcp 1040 ------- 2 1.0 4.0 3 6
r 1.45376 3 4 tcp 1040 ------- 2 1.0 4.0 1 4
+ 1.45376 4 3 ack 40 ------- 2 4.0 1.0 1 7
- 1.45376 4 3 ack 40 ------- 2 4.0 1.0 1 7
r 1.49536 3 4 tcp 1040 ------- 2 1.0 4.0 2 5
+ 1.49536 4 3 ack 40 ------- 2 4.0 1.0 2 8
- 1.49536 4 3 ack 40 ------- 2 4.0 1.0 2 8
r 1.53696 3 4 tcp 1040 ------- 2 1.0 4.0 3 6
+ 1.53696 4 3 ack 40 ------- 2 4.0 1.0 3 9
- 1.53696 4 3 ack 40 ------- 2 4.0 1.0 3 9
r 1.55536 4 3 ack 40 ------- 2 4.0 1.0 1 7
+ 1.55536 3 2 ack 40 ------- 2 4.0 1.0 1 7
- 1.55536 3 2 ack 40 ------- 2 4.0 1.0 1 7
r 1.59696 4 3 ack 40 ------- 2 4.0 1.0 2 8
+ 1.59696 3 2 ack 40 ------- 2 4.0 1.0 2 8
- 1.59696 3 2 ack 40 ------- 2 4.0 1.0 2 8
r 1.63856 4 3 ack 40 ------- 2 4.0 1.0 3 9
+ 1.63856 3 2 ack 40 ------- 2 4.0 1.0 3 9
- 1.63856 3 2 ack 40 ------- 2 4.0 1.0 3 9
r 1.65552 3 2 ack 40 ------- 2 4.0 1.0 1 7
+ 1.65552 2 1 ack 40 ------- 2 4.0 1.0 1 7
- 1.65552 2 1 ack 40 ------- 2 4.0 1.0 1 7
r 1.69712 3 2 ack 40 ------- 2 4.0 1.0 2 8
+ 1.69712 2 1 ack 40 ------- 2 4.0 1.0 2 8
- 1.69712 2 1 ack 40 ------- 2 4.0 1.0 2 8
r 1.73872 3 2 ack 40 ------- 2 4.0 1.0 3 9
+ 1.73872 2 1 ack 40 ------- 2 4.0 1.0 3 9
- 1.73872 2 1 ack 40 ------- 2 4.0 1.0 3 9
r 1.75568 2 1 ack 40 ------- 2 4.0 1.0 1 7
+ 1.75568 1 2 tcp 1040 ------- 2 1.0 4.0 4 10
- 1.75568 1 2 tcp 1040 ------- 2 1.0 4.0 4 10
r 1.79728 2 1 ack 40 ------- 2 4.0 1.0 2 8
+ 1.79728 1 2 tcp 1040 ------- 2 1.0 4.0 5 11
- 1.79728 1 2 tcp 1040 ------- 2 1.0 4.0 5 11
+ 1.79728 1 2 tcp 1040 ------- 2 1.0 4.0 6 12
- 1.80144 1 2 tcp 1040 ------- 2 1.0 4.0 6 12
r 1.83888 2 1 ack 40 ------- 2 4.0 1.0 3 9
+ 1.83888 1 2 tcp 1040 ------- 2 1.0 4.0 7 13
- 1.83888 1 2 tcp 1040 ------- 2 1.0 4.0 7 13
+ 1.83888 1 2 tcp 1040 ------- 2 1.0 4.0 8 14
- 1.84304 1 2 tcp 1040 ------- 2 1.0 4.0 8 14
r 1.85984 1 2 tcp 1040 ------- 2 1.0 4.0 4 10
+ 1.85984 2 3 tcp 1040 ------- 2 1.0 4.0 4 10
- 1.85984 2 3 tcp 1040 ------- 2 1.0 4.0 4 10
r 1.90144 1 2 tcp 1040 ------- 2 1.0 4.0 5 11
+ 1.90144 2 3 tcp 1040 ------- 2 1.0 4.0 5 11
- 1.90144 2 3 tcp 1040 ------- 2 1.0 4.0 5 11
r 1.9056 1 2 tcp 1040 ------- 2 1.0 4.0 6 12
+ 1.9056 2 3 tcp 1040 ------- 2 1.0 4.0 6 12
- 1.9056 2 3 tcp 1040 ------- 2 1.0 4.0 6 12
r 1.94304 1 2 tcp 1040 ------- 2 1.0 4.0 7 13
+ 1.94304 2 3 tcp 1040 ------- 2 1.0 4.0 7 13
- 1.94304 2 3 tcp 1040 ------- 2 1.0 4.0 7 13
r 1.9472 1 2 tcp 1040 ------- 2 1.0 4.0 8 14
+ 1.9472 2 3 tcp 1040 ------- 2 1.0 4.0 8 14
- 1.9472 2 3 tcp 1040 ------- 2 1.0 4.0 8 14
r 1.964 2 3 tcp 1040 ------- 2 1.0 4.0 4 10
+ 1.964 3 4 tcp 1040 ------- 2 1.0 4.0 4 10
- 1.964 3 4 tcp 1040 ------- 2 1.0 4.0 4 10
r 2.0056 2 3 tcp 1040 ------- 2 1.0 4.0 5 11
+ 2.0056 3 4 tcp 1040 ------- 2 1.0 4.0 5 11
- 2.0056 3 4 tcp 1040 ------- 2 1.0 4.0 5 11
r 2.00976 2 3 tcp 1040 ------- 2 1.0 4.0 6 12
+ 2.00976 3 4 tcp 1040 ------- 2 1.0 4.0 6 12
r 2.0472 2 3 tcp 1040 ------- 2 1.0 4.0 7 13
+ 2.0472 3 4 tcp 1040 ------- 2 1.0 4.0 7 13
- 2.0472 3 4 tcp 1040 ------- 2 1.0 4.0 6 12
r 2.05136 2 3 tcp 1040 ------- 2 1.0 4.0 8 14
+ 2.05136 3 4 tcp 1040 ------- 2 1.0 4.0 8 14
- 2.0888 3 4 tcp 1040 ------- 2 1.0 4.0 7 13
r 2.1056 3 4 tcp 1040 ------- 2 1.0 4.0 4 10
+ 2.1056 4 3 ack 40 ------- 2 4.0 1.0 4 15
- 2.1056 4 3 ack 40 ------- 2 4.0 1.0 4 15
- 2.1304 3 4 tcp 1040 ------- 2 1.0 4.0 8 14
r 2.1472 3 4 tcp 1040 ------- 2 1.0 4.0 5 11
+ 2.1472 4 3 ack 40 ------- 2 4.0 1.0 5 16
- 2.1472 4 3 ack 40 ------- 2 4.0 1.0 5 16
r 2.1888 3 4 tcp 1040 ------- 2 1.0 4.0 6 12
+ 2.1888 4 3 ack 40 ------- 2 4.0 1.0 6 17
- 2.1888 4 3 ack 40 ------- 2 4.0 1.0 6 17
r 2.2072 4 3 ack 40 ------- 2 4.0 1.0 4 15
+ 2.2072 3 2 ack 40 ------- 2 4.0 1.0 4 15
- 2.2072 3 2 ack 40 ------- 2 4.0 1.0 4 15
r 2.2304 3 4 tcp 1040 ------- 2 1.0 4.0 7 13
+ 2.2304 4 3 ack 40 ------- 2 4.0 1.0 7 18
- 2.2304 4 3 ack 40 ------- 2 4.0 1.0 7 18
r 2.2488 4 3 ack 40 ------- 2 4.0 1.0 5 16
+ 2.2488 3 2 ack 40 ------- 2 4.0 1.0 5 16
- 2.2488 3 2 ack 40 ------- 2 4.0 1.0 5 16
r 2.272 3 4 tcp 1040 ------- 2 1.0 4.0 8 14
+ 2.272 4 3 ack 40 ------- 2 4.0 1.0 8 19
- 2.272 4 3 ack 40 ------- 2 4.0 1.0 8 19
r 2.2904 4 3 ack 40 ------- 2 4.0 1.0 6 17
+ 2.2904 3 2 ack 40 ------- 2 4.0 1.0 6 17
- 2.2904 3 2 ack 40 ------- 2 4.0 1.0 6 17
r 2.30736 3 2 ack 40 ------- 2 4.0 1.0 4 15
+ 2.30736 2 1 ack 40 ------- 2 4.0 1.0 4 15
- 2.30736 2 1 ack 40 ------- 2 4.0 1.0 4 15
r 2.332 4 3 ack 40 ------- 2 4.0 1.0 7 18
+ 2.332 3 2 ack 40 ------- 2 4.0 1.0 7 18
- 2.332 3 2 ack 40 ------- 2 4.0 1.0 7 18
r 2.34896 3 2 ack 40 ------- 2 4.0 1.0 5 16
+ 2.34896 2 1 ack 40 ------- 2 4.0 1.0 5 16
- 2.34896 2 1 ack 40 ------- 2 4.0 1.0 5 16
r 2.3736 4 3 ack 40 ------- 2 4.0 1.0 8 19
+ 2.3736 3 2 ack 40 ------- 2 4.0 1.0 8 19
- 2.3736 3 2 ack 40 ------- 2 4.0 1.0 8 19
r 2.39056 3 2 ack 40 ------- 2 4.0 1.0 6 17
+ 2.39056 2 1 ack 40 ------- 2 4.0 1.0 6 17
- 2.39056 2 1 ack 40 ------- 2 4.0 1.0 6 17
r 2.40752 2 1 ack 40 ------- 2 4.0 1.0 4 15
+ 2.40752 1 2 tcp 1040 ------- 2 1.0 4.0 9 20
- 2.40752 1 2 tcp 1040 ------- 2 1.0 4.0 9 20
+ 2.40752 1 2 tcp 1040 ------- 2 1.0 4.0 10 21
- 2.41168 1 2 tcp 1040 ------- 2 1.0 4.0 10 21
r 2.43216 3 2 ack 40 ------- 2 4.0 1.0 7 18
+ 2.43216 2 1 ack 40 ------- 2 4.0 1.0 7 18
- 2.43216 2 1 ack 40 ------- 2 4.0 1.0 7 18
r 2.44912 2 1 ack 40 ------- 2 4.0 1.0 5 16
+ 2.44912 1 2 tcp 1040 ------- 2 1.0 4.0 11 22
- 2.44912 1 2 tcp 1040 ------- 2 1.0 4.0 11 22
+ 2.44912 1 2 tcp 1040 ------- 2 1.0 4.0 12 23
- 2.45328 1 2 tcp 1040 ------- 2 1.0 4.0 12 23
r 2.47376 3 2 ack 40 ------- 2 4.0 1.0 8 19
+ 2.47376 2 1 ack 40 ------- 2 4.0 1.0 8 19
- 2.47376 2 1 ack 40 ------- 2 4.0 1.0 8 19
r 2.49072 2 1 ack 40 ------- 2 4.0 1.0 6 17
+ 2.49072 1 2 tcp 1040 ------- 2 1.0 4.0 13 24
- 2.49072 1 2 tcp 1040 ------- 2 1.0 4.0 13 24
+ 2.49072 1 2 tcp 1040 ------- 2 1.0 4.0 14 25
- 2.49488 1 2 tcp 1040 ------- 2 1.0 4.0 14 25
r 2.51168 1 2 tcp 1040 ------- 2 1.0 4.0 9 20
+ 2.51168 2 3 tcp 1040 ------- 2 1.0 4.0 9 20
- 2.51168 2 3 tcp 1040 ------- 2 1.0 4.0 9 20
r 2.51584 1 2 tcp 1040 ------- 2 1.0 4.0 10 21
+ 2.51584 2 3 tcp 1040 ------- 2 1.0 4.0 10 21
- 2.51584 2 3 tcp 1040 ------- 2 1.0 4.0 10 21
r 2.53232 2 1 ack 40 ------- 2 4.0 1.0 7 18
+ 2.53232 1 2 tcp 1040 ------- 2 1.0 4.0 15 26
- 2.53232 1 2 tcp 1040 ------- 2 1.0 4.0 15 26
+ 2.53232 1 2 tcp 1040 ------- 2 1.0 4.0 16 27
- 2.53648 1 2 tcp 1040 ------- 2 1.0 4.0 16 27
r 2.55328 1 2 tcp 1040 ------- 2 1.0 4.0 11 22
+ 2.55328 2 3 tcp 1040 ------- 2 1.0 4.0 11 22
- 2.55328 2 3 tcp 1040 ------- 2 1.0 4.0 11 22
r 2.55744 1 2 tcp 1040 ------- 2 1.0 4.0 12 23
+ 2.55744 2 3 tcp 1040 ------- 2 1.0 4.0 12 23
- 2.55744 2 3 tcp 1040 ------- 2 1.0 4.0 12 23
r 2.57392 2 1 ack 40 ------- 2 4.0 1.0 8 19
+ 2.57392 1 2 tcp 1040 ------- 2 1.0 4.0 17 28
- 2.57392 1 2 tcp 1040 ------- 2 1.0 4.0 17 28
+ 2.57392 1 2 tcp 1040 ------- 2 1.0 4.0 18 29
- 2.57808 1 2 tcp 1040 ------- 2 1.0 4.0 18 29
r 2.59488 1 2 tcp 1040 ------- 2 1.0 4.0 13 24
+ 2.59488 2 3 tcp 1040 ------- 2 1.0 4.0 13 24
- 2.59488 2 3 tcp 1040 ------- 2 1.0 4.0 13 24
r 2.59904 1 2 tcp 1040 ------- 2 1.0 4.0 14 25
+ 2.59904 2 3 tcp 1040 ------- 2 1.0 4.0 14 25
- 2.59904 2 3 tcp 1040 ------- 2 1.0 4.0 14 25
r 2.61584 2 3 tcp 1040 ------- 2 1.0 4.0 9 20
+ 2.61584 3 4 tcp 1040 ------- 2 1.0 4.0 9 20
- 2.61584 3 4 tcp 1040 ------- 2 1.0 4.0 9 20
r 2.62 2 3 tcp 1040 ------- 2 1.0 4.0 10 21
+ 2.62 3 4 tcp 1040 ------- 2 1.0 4.0 10 21
r 2.63648 1 2 tcp 1040 ------- 2 1.0 4.0 15 26
+ 2.63648 2 3 tcp 1040 ------- 2 1.0 4.0 15 26
- 2.63648 2 3 tcp 1040 ------- 2 1.0 4.0 15 26
r 2.64064 1 2 tcp 1040 ------- 2 1.0 4.0 16 27
+ 2.64064 2 3 tcp 1040 ------- 2 1.0 4.0 16 27
- 2.64064 2 3 tcp 1040 ------- 2 1.0 4.0 16 27
r 2.65744 2 3 tcp 1040 ------- 2 1.0 4.0 11 22
+ 2.65744 3 4 tcp 1040 ------- 2 1.0 4.0 11 22
- 2.65744 3 4 tcp 1040 ------- 2 1.0 4.0 10 21
r 2.6616 2 3 tcp 1040 ------- 2 1.0 4.0 12 23
+ 2.6616 3 4 tcp 1040 ------- 2 1.0 4.0 12 23
r 2.67808 1 2 tcp 1040 ------- 2 1.0 4.0 17 28
+ 2.67808 2 3 tcp 1040 ------- 2 1.0 4.0 17 28
- 2.67808 2 3 tcp 1040 ------- 2 1.0 4.0 17 28
r 2.68224 1 2 tcp 1040 ------- 2 1.0 4.0 18 29
+ 2.68224 2 3 tcp 1040 ------- 2 1.0 4.0 18 29
- 2.68224 2 3 tcp 1040 ------- 2 1.0 4.0 18 29
r 2.69904 2 3 tcp 1040 ------- 2 1.0 4.0 13 24
+ 2.69904 3 4 tcp 1040 ------- 2 1.0 4.0 13 24
- 2.69904 3 4 tcp 1040 ------- 2 1.0 4.0 11 22
r 2.7032 2 3 tcp 1040 ------- 2 1.0 4.0 14 25
+ 2.7032 3 4 tcp 1040 ------- 2 1.0 4.0 14 25
r 2.74064 2 3 tcp 1040 ------- 2 1.0 4.0 15 26
+ 2.74064 3 4 tcp 1040 ------- 2 1.0 4.0 15 26
- 2.74064 3 4 tcp 1040 ------- 2 1.0 4.0 12 23
r 2.7448 2 3 tcp 1040 ------- 2 1.0 4.0 16 27
+ 2.7448 3 4 tcp 1040 ------- 2 1.0 4.0 16 27
r 2.75744 3 4 tcp 1040 ------- 2 1.0 4.0 9 20
+ 2.75744 4 3 ack 40 ------- 2 4.0 1.0 9 30
- 2.75744 4 3 ack 40 ------- 2 4.0 1.0 9 30
r 2.78224 2 3 tcp 1040 ------- 2 1.0 4.0 17 28
+ 2.78224 3 4 tcp 1040 ------- 2 1.0 4.0 17 28
- 2.78224 3 4 tcp 1040 ------- 2 1.0 4.0 13 24
r 2.7864 2 3 tcp 1040 ------- 2 1.0 4.0 18 29
+ 2.7864 3 4 tcp 1040 ------- 2 1.0 4.0 18 29
r 2.79904 3 4 tcp 1040 ------- 2 1.0 4.0 10 21
+ 2.79904 4 3 ack 40 ------- 2 4.0 1.0 10 31
- 2.79904 4 3 ack 40 ------- 2 4.0 1.0 10 31
- 2.82384 3 4 tcp 1040 ------- 2 1.0 4.0 14 25
r 2.84064 3 4 tcp 1040 ------- 2 1.0 4.0 11 22
+ 2.84064 4 3 ack 40 ------- 2 4.0 1.0 11 32
- 2.84064 4 3 ack 40 ------- 2 4.0 1.0 11 32
r 2.85904 4 3 ack 40 ------- 2 4.0 1.0 9 30
+ 2.85904 3 2 ack 40 ------- 2 4.0 1.0 9 30
- 2.85904 3 2 ack 40 ------- 2 4.0 1.0 9 30
- 2.86544 3 4 tcp 1040 ------- 2 1.0 4.0 15 26
r 2.88224 3 4 tcp 1040 ------- 2 1.0 4.0 12 23
+ 2.88224 4 3 ack 40 ------- 2 4.0 1.0 12 33
- 2.88224 4 3 ack 40 ------- 2 4.0 1.0 12 33
r 2.90064 4 3 ack 40 ------- 2 4.0 1.0 10 31
+ 2.90064 3 2 ack 40 ------- 2 4.0 1.0 10 31
- 2.90064 3 2 ack 40 ------- 2 4.0 1.0 10 31
- 2.90704 3 4 tcp 1040 ------- 2 1.0 4.0 16 27
r 2.92384 3 4 tcp 1040 ------- 2 1.0 4.0 13 24
+ 2.92384 4 3 ack 40 ------- 2 4.0 1.0 13 34
- 2.92384 4 3 ack 40 ------- 2 4.0 1.0 13 34
r 2.94224 4 3 ack 40 ------- 2 4.0 1.0 11 32
+ 2.94224 3 2 ack 40 ------- 2 4.0 1.0 11 32
- 2.94224 3 2 ack 40 ------- 2 4.0 1.0 11 32
- 2.94864 3 4 tcp 1040 ------- 2 1.0 4.0 17 28
r 2.9592 3 2 ack 40 ------- 2 4.0 1.0 9 30
+ 2.9592 2 1 ack 40 ------- 2 4.0 1.0 9 30
- 2.9592 2 1 ack 40 ------- 2 4.0 1.0 9 30
r 2.96544 3 4 tcp 1040 ------- 2 1.0 4.0 14 25
+ 2.96544 4 3 ack 40 ------- 2 4.0 1.0 14 35
- 2.96544 4 3 ack 40 ------- 2 4.0 1.0 14 35
r 2.98384 4 3 ack 40 ------- 2 4.0 1.0 12 33
+ 2.98384 3 2 ack 40 ------- 2 4.0 1.0 12 33
- 2.98384 3 2 ack 40 ------- 2 4.0 1.0 12 33
- 2.99024 3 4 tcp 1040 ------- 2 1.0 4.0 18 29
r 3.0008 3 2 ack 40 ------- 2 4.0 1.0 10 31
+ 3.0008 2 1 ack 40 ------- 2 4.0 1.0 10 31
- 3.0008 2 1 ack 40 ------- 2 4.0 1.0 10 31
r 3.00704 3 4 tcp 1040 ------- 2 1.0 4.0 15 26
+ 3.00704 4 3 ack 40 ------- 2 4.0 1.0 15 36
- 3.00704 4 3 ack 40 ------- 2 4.0 1.0 15 36
r 3.02544 4 3 ack 40 ------- 2 4.0 1.0 13 34
+ 3.02544 3 2 ack 40 ------- 2 4.0 1.0 13 34
- 3.02544 3 2 ack 40 ------- 2 4.0 1.0 13 34
r 3.0424 3 2 ack 40 ------- 2 4.0 1.0 11 32
+ 3.0424 2 1 ack 40 ------- 2 4.0 1.0 11 32
- 3.0424 2 1 ack 40 ------- 2 4.0 1.0 11 32
r 3.04864 3 4 tcp 1040 ------- 2 1.0 4.0 16 27
+ 3.04864 4 3 ack 40 ------- 2 4.0 1.0 16 37
- 3.04864 4 3 ack 40 ------- 2 4.0 1.0 16 37
r 3.05936 2 1 ack 40 ------- 2 4.0 1.0 9 30
+ 3.05936 1 2 tcp 1040 ------- 2 1.0 4.0 19 38
- 3.05936 1 2 tcp 1040 ------- 2 1.0 4.0 19 38
+ 3.05936 1 2 tcp 1040 ------- 2 1.0 4.0 20 39
- 3.06352 1 2 tcp 1040 ------- 2 1.0 4.0 20 39
r 3.06704 4 3 ack 40 ------- 2 4.0 1.0 14 35
+ 3.06704 3 2 ack 40 ------- 2 4.0 1.0 14 35
- 3.06704 3 2 ack 40 ------- 2 4.0 1.0 14 35
r 3.084 3 2 ack 40 ------- 2 4.0 1.0 12 33
+ 3.084 2 1 ack 40 ------- 2 4.0 1.0 12 33
- 3.084 2 1 ack 40 ------- 2 4.0 1.0 12 33
r 3.09024 3 4 tcp 1040 ------- 2 1.0 4.0 17 28
+ 3.09024 4 3 ack 40 ------- 2 4.0 1.0 17 40
- 3.09024 4 3 ack 40 ------- 2 4.0 1.0 17 40
r 3.10096 2 1 ack 40 ------- 2 4.0 1.0 10 31
+ 3.10096 1 2 tcp 1040 ------- 2 1.0 4.0 21 41
- 3.10096 1 2 tcp 1040 ------- 2 1.0 4.0 21 41
+ 3.10096 1 2 tcp 1040 ------- 2 1.0 4.0 22 42
- 3.10512 1 2 tcp 1040 ------- 2 1.0 4.0 22 42
r 3.10864 4 3 ack 40 ------- 2 4.0 1.0 15 36
+ 3.10864 3 2 ack 40 ------- 2 4.0 1.0 15 36
- 3.10864 3 2 ack 40 ------- 2 4.0 1.0 15 36
r 3.1256 3 2 ack 40 ------- 2 4.0 1.0 13 34
+ 3.1256 2 1 ack 40 ------- 2 4.0 1.0 13 34
- 3.1256 2 1 ack 40 ------- 2 4.0 1.0 13 34
r 3.13184 3 4 tcp 1040 ------- 2 1.0 4.0 18 29
+ 3.13184 4 3 ack 40 ------- 2 4.0 1.0 18 43
- 3.13184 4 3 ack 40 ------- 2 4.0 1.0 18 43
r 3.14256 2 1 ack 40 ------- 2 4.0 1.0 11 32
+ 3.14256 1 2 tcp 1040 ------- 2 1.0 4.0 23 44
- 3.14256 1 2 tcp 1040 ------- 2 1.0 4.0 23 44
+ 3.14256 1 2 tcp 1040 ------- 2 1.0 4.0 24 45
- 3.14672 1 2 tcp 1040 ------- 2 1.0 4.0 24 45
r 3.15024 4 3 ack 40 ------- 2 4.0 1.0 16 37
+ 3.15024 3 2 ack 40 ------- 2 4.0 1.0 16 37
- 3.15024 3 2 ack 40 ------- 2 4.0 1.0 16 37
r 3.16352 1 2 tcp 1040 ------- 2 1.0 4.0 19 38
+ 3.16352 2 3 tcp 1040 ------- 2 1.0 4.0 19 38
- 3.16352 2 3 tcp 1040 ------- 2 1.0 4.0 19 38
r 3.1672 3 2 ack 40 ------- 2 4.0 1.0 14 35
+ 3.1672 2 1 ack 40 ------- 2 4.0 1.0 14 35
- 3.1672 2 1 ack 40 ------- 2 4.0 1.0 14 35
r 3.16768 1 2 tcp 1040 ------- 2 1.0 4.0 20 39
+ 3.16768 2 3 tcp 1040 ------- 2 1.0 4.0 20 39
- 3.16768 2 3 tcp 1040 ------- 2 1.0 4.0 20 39
r 3.18416 2 1 ack 40 ------- 2 4.0 1.0 12 33
+ 3.18416 1 2 tcp 1040 ------- 2 1.0 4.0 25 46
- 3.18416 1 2 tcp 1040 ------- 2 1.0 4.0 25 46
+ 3.18416 1 2 tcp 1040 ------- 2 1.0 4.0 26 47
- 3.18832 1 2 tcp 1040 ------- 2 1.0 4.0 26 47
r 3.19184 4 3 ack 40 ------- 2 4.0 1.0 17 40
+ 3.19184 3 2 ack 40 ------- 2 4.0 1.0 17 40
- 3.19184 3 2 ack 40 ------- 2 4.0 1.0 17 40
r 3.20512 1 2 tcp 1040 ------- 2 1.0 4.0 21 41
+ 3.20512 2 3 tcp 1040 ------- 2 1.0 4.0 21 41
- 3.20512 2 3 tcp 1040 ------- 2 1.0 4.0 21 41
r 3.2088 3 2 ack 40 ------- 2 4.0 1.0 15 36
+ 3.2088 2 1 ack 40 ------- 2 4.0 1.0 15 36
- 3.2088 2 1 ack 40 ------- 2 4.0 1.0 15 36
r 3.20928 1 2 tcp 1040 ------- 2 1.0 4.0 22 42
+ 3.20928 2 3 tcp 1040 ------- 2 1.0 4.0 22 42
- 3.20928 2 3 tcp 1040 ------- 2 1.0 4.0 22 42
r 3.22576 2 1 ack 40 ------- 2 4.0 1.0 13 34
+ 3.22576 1 2 tcp 1040 ------- 2 1.0 4.0 27 48
- 3.22576 1 2 tcp 1040 ------- 2 1.0 4.0 27 48
+ 3.22576 1 2 tcp 1040 ------- 2 1.0 4.0 28 49
- 3.22992 1 2 tcp 1040 ------- 2 1.0 4.0 28 49
r 3.23344 4 3 ack 40 ------- 2 4.0 1.0 18 43
+ 3.23344 3 2 ack 40 ------- 2 4.0 1.0 18 43
- 3.23344 3 2 ack 40 ------- 2 4.0 1.0 18 43
r 3.24672 1 2 tcp 1040 ------- 2 1.0 4.0 23 44
+ 3.24672 2 3 tcp 1040 ------- 2 1.0 4.0 23 44
- 3.24672 2 3 tcp 1040 ------- 2 1.0 4.0 23 44
r 3.2504 3 2 ack 40 ------- 2 4.0 1.0 16 37
+ 3.2504 2 1 ack 40 ------- 2 4.0 1.0 16 37
- 3.2504 2 1 ack 40 ------- 2 4.0 1.0 16 37
r 3.25088 1 2 tcp 1040 ------- 2 1.0 4.0 24 45
+ 3.25088 2 3 tcp 1040 ------- 2 1.0 4.0 24 45
- 3.25088 2 3 tcp 1040 ------- 2 1.0 4.0 24 45
r 3.26736 2 1 ack 40 ------- 2 4.0 1.0 14 35
+ 3.26736 1 2 tcp 1040 ------- 2 1.0 4.0 29 50
- 3.26736 1 2 tcp 1040 ------- 2 1.0 4.0 29 50
+ 3.26736 1 2 tcp 1040 ------- 2 1.0 4.0 30 51
r 3.26768 2 3 tcp 1040 ------- 2 1.0 4.0 19 38
+ 3.26768 3 4 tcp 1040 ------- 2 1.0 4.0 19 38
- 3.26768 3 4 tcp 1040 ------- 2 1.0 4.0 19 38
- 3.27152 1 2 tcp 1040 ------- 2 1.0 4.0 30 51
r 3.27184 2 3 tcp 1040 ------- 2 1.0 4.0 20 39
+ 3.27184 3 4 tcp 1040 ------- 2 1.0 4.0 20 39
r 3.28832 1 2 tcp 1040 ------- 2 1.0 4.0 25 46
+ 3.28832 2 3 tcp 1040 ------- 2 1.0 4.0 25 46
- 3.28832 2 3 tcp 1040 ------- 2 1.0 4.0 25 46
r 3.292 3 2 ack 40 ------- 2 4.0 1.0 17 40
+ 3.292 2 1 ack 40 ------- 2 4.0 1.0 17 40
- 3.292 2 1 ack 40 ------- 2 4.0 1.0 17 40
r 3.29248 1 2 tcp 1040 ------- 2 1.0 4.0 26 47
+ 3.29248 2 3 tcp 1040 ------- 2 1.0 4.0 26 47
- 3.29248 2 3 tcp 1040 ------- 2 1.0 4.0 26 47
r 3.30896 2 1 ack 40 ------- 2 4.0 1.0 15 36
+ 3.30896 1 2 tcp 1040 ------- 2 1.0 4.0 31 52
- 3.30896 1 2 tcp 1040 ------- 2 1.0 4.0 31 52
+ 3.30896 1 2 tcp 1040 ------- 2 1.0 4.0 32 53
r 3.30928 2 3 tcp 1040 ------- 2 1.0 4.0 21 41
+ 3.30928 3 4 tcp 1040 ------- 2 1.0 4.0 21 41
- 3.30928 3 4 tcp 1040 ------- 2 1.0 4.0 20 39
- 3.31312 1 2 tcp 1040 ------- 2 1.0 4.0 32 53
r 3.31344 2 3 tcp 1040 ------- 2 1.0 4.0 22 42
+ 3.31344 3 4 tcp 1040 ------- 2 1.0 4.0 22 42
r 3.32992 1 2 tcp 1040 ------- 2 1.0 4.0 27 48
+ 3.32992 2 3 tcp 1040 ------- 2 1.0 4.0 27 48
- 3.32992 2 3 tcp 1040 ------- 2 1.0 4.0 27 48
r 3.3336 3 2 ack 40 ------- 2 4.0 1.0 18 43
+ 3.3336 2 1 ack 40 ------- 2 4.0 1.0 18 43
- 3.3336 2 1 ack 40 ------- 2 4.0 1.0 18 43
r 3.33408 1 2 tcp 1040 ------- 2 1.0 4.0 28 49
+ 3.33408 2 3 tcp 1040 ------- 2 1.0 4.0 28 49
- 3.33408 2 3 tcp 1040 ------- 2 1.0 4.0 28 49
r 3.35056 2 1 ack 40 ------- 2 4.0 1.0 16 37
+ 3.35056 1 2 tcp 1040 ------- 2 1.0 4.0 33 54
- 3.35056 1 2 tcp 1040 ------- 2 1.0 4.0 33 54
+ 3.35056 1 2 tcp 1040 ------- 2 1.0 4.0 34 55
r 3.35088 2 3 tcp 1040 ------- 2 1.0 4.0 23 44
+ 3.35088 3 4 tcp 1040 ------- 2 1.0 4.0 23 44
- 3.35088 3 4 tcp 1040 ------- 2 1.0 4.0 21 41
- 3.35472 1 2 tcp 1040 ------- 2 1.0 4.0 34 55
r 3.35504 2 3 tcp 1040 ------- 2 1.0 4.0 24 45
+ 3.35504 3 4 tcp 1040 ------- 2 1.0 4.0 24 45
r 3.37152 1 2 tcp 1040 ------- 2 1.0 4.0 29 50
+ 3.37152 2 3 tcp 1040 ------- 2 1.0 4.0 29 50
- 3.37152 2 3 tcp 1040 ------- 2 1.0 4.0 29 50
r 3.37568 1 2 tcp 1040 ------- 2 1.0 4.0 30 51
+ 3.37568 2 3 tcp 1040 ------- 2 1.0 4.0 30 51
- 3.37568 2 3 tcp 1040 ------- 2 1.0 4.0 30 51
r 3.39216 2 1 ack 40 ------- 2 4.0 1.0 17 40
+ 3.39216 1 2 tcp 1040 ------- 2 1.0 4.0 35 56
- 3.39216 1 2 tcp 1040 ------- 2 1.0 4.0 35 56
+ 3.39216 1 2 tcp 1040 ------- 2 1.0 4.0 36 57
r 3.39248 2 3 tcp 1040 ------- 2 1.0 4.0 25 46
+ 3.39248 3 4 tcp 1040 ------- 2 1.0 4.0 25 46
- 3.39248 3 4 tcp 1040 ------- 2 1.0 4.0 22 42
- 3.39632 1 2 tcp 1040 ------- 2 1.0 4.0 36 57
r 3.39664 2 3 tcp 1040 ------- 2 1.0 4.0 26 47
+ 3.39664 3 4 tcp 1040 ------- 2 1.0 4.0 26 47
r 3.40928 3 4 tcp 1040 ------- 2 1.0 4.0 19 38
+ 3.40928 4 3 ack 40 ------- 2 4.0 1.0 19 58
- 3.40928 4 3 ack 40 ------- 2 4.0 1.0 19 58
r 3.41312 1 2 tcp 1040 ------- 2 1.0 4.0 31 52
+ 3.41312 2 3 tcp 1040 ------- 2 1.0 4.0 31 52
- 3.41312 2 3 tcp 1040 ------- 2 1.0 4.0 31 52
r 3.41728 1 2 tcp 1040 ------- 2 1.0 4.0 32 53
+ 3.41728 2 3 tcp 1040 ------- 2 1.0 4.0 32 53
- 3.41728 2 3 tcp 1040 ------- 2 1.0 4.0 32 53
r 3.43376 2 1 ack 40 ------- 2 4.0 1.0 18 43
+ 3.43376 1 2 tcp 1040 ------- 2 1.0 4.0 37 59
- 3.43376 1 2 tcp 1040 ------- 2 1.0 4.0 37 59
+ 3.43376 1 2 tcp 1040 ------- 2 1.0 4.0 38 60
r 3.43408 2 3 tcp 1040 ------- 2 1.0 4.0 27 48
+ 3.43408 3 4 tcp 1040 ------- 2 1.0 4.0 27 48
- 3.43408 3 4 tcp 1040 ------- 2 1.0 4.0 23 44
- 3.43792 1 2 tcp 1040 ------- 2 1.0 4.0 38 60
r 3.43824 2 3 tcp 1040 ------- 2 1.0 4.0 28 49
+ 3.43824 3 4 tcp 1040 ------- 2 1.0 4.0 28 49
r 3.45088 3 4 tcp 1040 ------- 2 1.0 4.0 20 39
+ 3.45088 4 3 ack 40 ------- 2 4.0 1.0 20 61
- 3.45088 4 3 ack 40 ------- 2 4.0 1.0 20 61
r 3.45472 1 2 tcp 1040 ------- 2 1.0 4.0 33 54
+ 3.45472 2 3 tcp 1040 ------- 2 1.0 4.0 33 54
- 3.45472 2 3 tcp 1040 ------- 2 1.0 4.0 33 54
r 3.45888 1 2 tcp 1040 ------- 2 1.0 4.0 34 55
+ 3.45888 2 3 tcp 1040 ------- 2 1.0 4.0 34 55
- 3.45888 2 3 tcp 1040 ------- 2 1.0 4.0 34 55
r 3.47568 2 3 tcp 1040 ------- 2 1.0 4.0 29 50
+ 3.47568 3 4 tcp 1040 ------- 2 1.0 4.0 29 50
- 3.47568 3 4 tcp 1040 ------- 2 1.0 4.0 24 45
r 3.47984 2 3 tcp 1040 ------- 2 1.0 4.0 30 51
+ 3.47984 3 4 tcp 1040 ------- 2 1.0 4.0 30 51
r 3.49248 3 4 tcp 1040 ------- 2 1.0 4.0 21 41
+ 3.49248 4 3 ack 40 ------- 2 4.0 1.0 21 62
- 3.49248 4 3 ack 40 ------- 2 4.0 1.0 21 62
r 3.49632 1 2 tcp 1040 ------- 2 1.0 4.0 35 56
+ 3.49632 2 3 tcp 1040 ------- 2 1.0 4.0 35 56
- 3.49632 2 3 tcp 1040 ------- 2 1.0 4.0 35 56
+ 3.5 0 2 tcp 40 ---A--- 1 0.0 4.0 0 63
- 3.5 0 2 tcp 40 ---A--- 1 0.0 4.0 0 63
r 3.50048 1 2 tcp 1040 ------- 2 1.0 4.0 36 57
+ 3.50048 2 3 tcp 1040 ------- 2 1.0 4.0 36 57
- 3.50048 2 3 tcp 1040 ------- 2 1.0 4.0 36 57
r 3.51088 4 3 ack 40 ------- 2 4.0 1.0 19 58
+ 3.51088 3 2 ack 40 ------- 2 4.0 1.0 19 58
- 3.51088 3 2 ack 40 ------- 2 4.0 1.0 19 58
r 3.51728 2 3 tcp 1040 ------- 2 1.0 4.0 31 52
+ 3.51728 3 4 tcp 1040 ------- 2 1.0 4.0 31 52
- 3.51728 3 4 tcp 1040 ------- 2 1.0 4.0 25 46
r 3.52144 2 3 tcp 1040 ------- 2 1.0 4.0 32 53
+ 3.52144 3 4 tcp 1040 ------- 2 1.0 4.0 32 53
r 3.53408 3 4 tcp 1040 ------- 2 1.0 4.0 22 42
+ 3.53408 4 3 ack 40 ------- 2 4.0 1.0 22 64
- 3.53408 4 3 ack 40 ------- 2 4.0 1.0 22 64
r 3.53792 1 2 tcp 1040 ------- 2 1.0 4.0 37 59
+ 3.53792 2 3 tcp 1040 ------- 2 1.0 4.0 37 59
- 3.53792 2 3 tcp 1040 ------- 2 1.0 4.0 37 59
r 3.54208 1 2 tcp 1040 ------- 2 1.0 4.0 38 60
+ 3.54208 2 3 tcp 1040 ------- 2 1.0 4.0 38 60
- 3.54208 2 3 tcp 1040 ------- 2 1.0 4.0 38 60
r 3.55248 4 3 ack 40 ------- 2 4.0 1.0 20 61
+ 3.55248 3 2 ack 40 ------- 2 4.0 1.0 20 61
- 3.55248 3 2 ack 40 ------- 2 4.0 1.0 20 61
r 3.55888 2 3 tcp 1040 ------- 2 1.0 4.0 33 54
+ 3.55888 3 4 tcp 1040 ------- 2 1.0 4.0 33 54
- 3.55888 3 4 tcp 1040 ------- 2 1.0 4.0 26 47
r 3.56304 2 3 tcp 1040 ------- 2 1.0 4.0 34 55
+ 3.56304 3 4 tcp 1040 ------- 2 1.0 4.0 34 55
r 3.57568 3 4 tcp 1040 ------- 2 1.0 4.0 23 44
+ 3.57568 4 3 ack 40 ------- 2 4.0 1.0 23 65
- 3.57568 4 3 ack 40 ------- 2 4.0 1.0 23 65
r 3.59408 4 3 ack 40 ------- 2 4.0 1.0 21 62
+ 3.59408 3 2 ack 40 ------- 2 4.0 1.0 21 62
- 3.59408 3 2 ack 40 ------- 2 4.0 1.0 21 62
r 3.60016 0 2 tcp 40 ---A--- 1 0.0 4.0 0 63
+ 3.60016 2 3 tcp 40 ---A--- 1 0.0 4.0 0 63
- 3.60016 2 3 tcp 40 ---A--- 1 0.0 4.0 0 63
r 3.60048 2 3 tcp 1040 ------- 2 1.0 4.0 35 56
+ 3.60048 3 4 tcp 1040 ------- 2 1.0 4.0 35 56
- 3.60048 3 4 tcp 1040 ------- 2 1.0 4.0 27 48
r 3.60464 2 3 tcp 1040 ------- 2 1.0 4.0 36 57
+ 3.60464 3 4 tcp 1040 ------- 2 1.0 4.0 36 57
r 3.61104 3 2 ack 40 ------- 2 4.0 1.0 19 58
+ 3.61104 2 1 ack 40 ------- 2 4.0 1.0 19 58
- 3.61104 2 1 ack 40 ------- 2 4.0 1.0 19 58
r 3.61728 3 4 tcp 1040 ------- 2 1.0 4.0 24 45
+ 3.61728 4 3 ack 40 ------- 2 4.0 1.0 24 66
- 3.61728 4 3 ack 40 ------- 2 4.0 1.0 24 66
r 3.63568 4 3 ack 40 ------- 2 4.0 1.0 22 64
+ 3.63568 3 2 ack 40 ------- 2 4.0 1.0 22 64
- 3.63568 3 2 ack 40 ------- 2 4.0 1.0 22 64
r 3.64208 2 3 tcp 1040 ------- 2 1.0 4.0 37 59
+ 3.64208 3 4 tcp 1040 ------- 2 1.0 4.0 37 59
- 3.64208 3 4 tcp 1040 ------- 2 1.0 4.0 28 49
r 3.64624 2 3 tcp 1040 ------- 2 1.0 4.0 38 60
+ 3.64624 3 4 tcp 1040 ------- 2 1.0 4.0 38 60
r 3.65264 3 2 ack 40 ------- 2 4.0 1.0 20 61
+ 3.65264 2 1 ack 40 ------- 2 4.0 1.0 20 61
- 3.65264 2 1 ack 40 ------- 2 4.0 1.0 20 61
r 3.65888 3 4 tcp 1040 ------- 2 1.0 4.0 25 46
+ 3.65888 4 3 ack 40 ------- 2 4.0 1.0 25 67
- 3.65888 4 3 ack 40 ------- 2 4.0 1.0 25 67
r 3.67728 4 3 ack 40 ------- 2 4.0 1.0 23 65
+ 3.67728 3 2 ack 40 ------- 2 4.0 1.0 23 65
- 3.67728 3 2 ack 40 ------- 2 4.0 1.0 23 65
- 3.68368 3 4 tcp 1040 ------- 2 1.0 4.0 29 50
r 3.69424 3 2 ack 40 ------- 2 4.0 1.0 21 62
+ 3.69424 2 1 ack 40 ------- 2 4.0 1.0 21 62
- 3.69424 2 1 ack 40 ------- 2 4.0 1.0 21 62
r 3.70032 2 3 tcp 40 ---A--- 1 0.0 4.0 0 63
+ 3.70032 3 4 tcp 40 ---A--- 1 0.0 4.0 0 63
r 3.70048 3 4 tcp 1040 ------- 2 1.0 4.0 26 47
+ 3.70048 4 3 ack 40 ------- 2 4.0 1.0 26 68
- 3.70048 4 3 ack 40 ------- 2 4.0 1.0 26 68
r 3.7112 2 1 ack 40 ------- 2 4.0 1.0 19 58
+ 3.7112 1 2 tcp 1040 ------- 2 1.0 4.0 39 69
- 3.7112 1 2 tcp 1040 ------- 2 1.0 4.0 39 69
r 3.71888 4 3 ack 40 ------- 2 4.0 1.0 24 66
+ 3.71888 3 2 ack 40 ------- 2 4.0 1.0 24 66
- 3.71888 3 2 ack 40 ------- 2 4.0 1.0 24 66
- 3.72528 3 4 tcp 1040 ------- 2 1.0 4.0 30 51
r 3.73584 3 2 ack 40 ------- 2 4.0 1.0 22 64
+ 3.73584 2 1 ack 40 ------- 2 4.0 1.0 22 64
- 3.73584 2 1 ack 40 ------- 2 4.0 1.0 22 64
r 3.74208 3 4 tcp 1040 ------- 2 1.0 4.0 27 48
+ 3.74208 4 3 ack 40 ------- 2 4.0 1.0 27 70
- 3.74208 4 3 ack 40 ------- 2 4.0 1.0 27 70
r 3.7528 2 1 ack 40 ------- 2 4.0 1.0 20 61
+ 3.7528 1 2 tcp 1040 ------- 2 1.0 4.0 40 71
- 3.7528 1 2 tcp 1040 ------- 2 1.0 4.0 40 71
r 3.76048 4 3 ack 40 ------- 2 4.0 1.0 25 67
+ 3.76048 3 2 ack 40 ------- 2 4.0 1.0 25 67
- 3.76048 3 2 ack 40 ------- 2 4.0 1.0 25 67
- 3.76688 3 4 tcp 1040 ------- 2 1.0 4.0 31 52
r 3.77744 3 2 ack 40 ------- 2 4.0 1.0 23 65
+ 3.77744 2 1 ack 40 ------- 2 4.0 1.0 23 65
- 3.77744 2 1 ack 40 ------- 2 4.0 1.0 23 65
r 3.78368 3 4 tcp 1040 ------- 2 1.0 4.0 28 49
+ 3.78368 4 3 ack 40 ------- 2 4.0 1.0 28 72
- 3.78368 4 3 ack 40 ------- 2 4.0 1.0 28 72
r 3.7944 2 1 ack 40 ------- 2 4.0 1.0 21 62
+ 3.7944 1 2 tcp 1040 ------- 2 1.0 4.0 41 73
- 3.7944 1 2 tcp 1040 ------- 2 1.0 4.0 41 73
r 3.80208 4 3 ack 40 ------- 2 4.0 1.0 26 68
+ 3.80208 3 2 ack 40 ------- 2 4.0 1.0 26 68
- 3.80208 3 2 ack 40 ------- 2 4.0 1.0 26 68
- 3.80848 3 4 tcp 1040 ------- 2 1.0 4.0 32 53
r 3.81536 1 2 tcp 1040 ------- 2 1.0 4.0 39 69
+ 3.81536 2 3 tcp 1040 ------- 2 1.0 4.0 39 69
- 3.81536 2 3 tcp 1040 ------- 2 1.0 4.0 39 69
r 3.81904 3 2 ack 40 ------- 2 4.0 1.0 24 66
+ 3.81904 2 1 ack 40 ------- 2 4.0 1.0 24 66
- 3.81904 2 1 ack 40 ------- 2 4.0 1.0 24 66
r 3.82528 3 4 tcp 1040 ------- 2 1.0 4.0 29 50
+ 3.82528 4 3 ack 40 ------- 2 4.0 1.0 29 74
- 3.82528 4 3 ack 40 ------- 2 4.0 1.0 29 74
r 3.836 2 1 ack 40 ------- 2 4.0 1.0 22 64
+ 3.836 1 2 tcp 1040 ------- 2 1.0 4.0 42 75
- 3.836 1 2 tcp 1040 ------- 2 1.0 4.0 42 75
r 3.84368 4 3 ack 40 ------- 2 4.0 1.0 27 70
+ 3.84368 3 2 ack 40 ------- 2 4.0 1.0 27 70
- 3.84368 3 2 ack 40 ------- 2 4.0 1.0 27 70
- 3.85008 3 4 tcp 1040 ------- 2 1.0 4.0 33 54
r 3.85696 1 2 tcp 1040 ------- 2 1.0 4.0 40 71
+ 3.85696 2 3 tcp 1040 ------- 2 1.0 4.0 40 71
- 3.85696 2 3 tcp 1040 ------- 2 1.0 4.0 40 71
r 3.86064 3 2 ack 40 ------- 2 4.0 1.0 25 67
+ 3.86064 2 1 ack 40 ------- 2 4.0 1.0 25 67
- 3.86064 2 1 ack 40 ------- 2 4.0 1.0 25 67
r 3.86688 3 4 tcp 1040 ------- 2 1.0 4.0 30 51
+ 3.86688 4 3 ack 40 ------- 2 4.0 1.0 30 76
- 3.86688 4 3 ack 40 ------- 2 4.0 1.0 30 76
r 3.8776 2 1 ack 40 ------- 2 4.0 1.0 23 65
+ 3.8776 1 2 tcp 1040 ------- 2 1.0 4.0 43 77
- 3.8776 1 2 tcp 1040 ------- 2 1.0 4.0 43 77
r 3.88528 4 3 ack 40 ------- 2 4.0 1.0 28 72
+ 3.88528 3 2 ack 40 ------- 2 4.0 1.0 28 72
- 3.88528 3 2 ack 40 ------- 2 4.0 1.0 28 72
- 3.89168 3 4 tcp 1040 ------- 2 1.0 4.0 34 55
r 3.89856 1 2 tcp 1040 ------- 2 1.0 4.0 41 73
+ 3.89856 2 3 tcp 1040 ------- 2 1.0 4.0 41 73
- 3.89856 2 3 tcp 1040 ------- 2 1.0 4.0 41 73
r 3.90224 3 2 ack 40 ------- 2 4.0 1.0 26 68
+ 3.90224 2 1 ack 40 ------- 2 4.0 1.0 26 68
- 3.90224 2 1 ack 40 ------- 2 4.0 1.0 26 68
r 3.90848 3 4 tcp 1040 ------- 2 1.0 4.0 31 52
+ 3.90848 4 3 ack 40 ------- 2 4.0 1.0 31 78
- 3.90848 4 3 ack 40 ------- 2 4.0 1.0 31 78
r 3.9192 2 1 ack 40 ------- 2 4.0 1.0 24 66
+ 3.9192 1 2 tcp 1040 ------- 2 1.0 4.0 44 79
- 3.9192 1 2 tcp 1040 ------- 2 1.0 4.0 44 79
r 3.91952 2 3 tcp 1040 ------- 2 1.0 4.0 39 69
+ 3.91952 3 4 tcp 1040 ------- 2 1.0 4.0 39 69
r 3.92688 4 3 ack 40 ------- 2 4.0 1.0 29 74
+ 3.92688 3 2 ack 40 ------- 2 4.0 1.0 29 74
- 3.92688 3 2 ack 40 ------- 2 4.0 1.0 29 74
- 3.93328 3 4 tcp 1040 ------- 2 1.0 4.0 35 56
r 3.94016 1 2 tcp 1040 ------- 2 1.0 4.0 42 75
+ 3.94016 2 3 tcp 1040 ------- 2 1.0 4.0 42 75
- 3.94016 2 3 tcp 1040 ------- 2 1.0 4.0 42 75
r 3.94384 3 2 ack 40 ------- 2 4.0 1.0 27 70
+ 3.94384 2 1 ack 40 ------- 2 4.0 1.0 27 70
- 3.94384 2 1 ack 40 ------- 2 4.0 1.0 27 70
r 3.95008 3 4 tcp 1040 ------- 2 1.0 4.0 32 53
+ 3.95008 4 3 ack 40 ------- 2 4.0 1.0 32 80
- 3.95008 4 3 ack 40 ------- 2 4.0 1.0 32 80
r 3.9608 2 1 ack 40 ------- 2 4.0 1.0 25 67
+ 3.9608 1 2 tcp 1040 ------- 2 1.0 4.0 45 81