V -t * -v 1.0a5 -a 0
A -t * -n 1 -p 0 -o 0x7fffffff -c 30 -a 1
A -t * -h 1 -m 1073741823 -s 0
c -t * -i 1 -n Green
c -t * -i 2 -n Blue
n -t * -a 4 -s 4 -S UP -v hexagon -c black -i black
n -t * -a 0 -s 0 -S UP -v circle -c black -i black
n -t * -a 1 -s 1 -S UP -v circle -c black -i black
n -t * -a 2 -s 2 -S UP -v box -c black -i black
n -t * -a 3 -s 3 -S UP -v box -c black -i black
l -t * -s 0 -d 2 -S UP -r 2000000 -D 0.10000000000000001 -c black -o down
l -t * -s 1 -d 2 -S UP -r 2000000 -D 0.10000000000000001 -c black -o right
l -t * -s 2 -d 3 -S UP -r 2000000 -D 0.10000000000000001 -c black -o right
l -t * -s 3 -d 4 -S UP -r 200000 -D 0.10000000000000001 -c black -o down
n -t 0 -s 0 -S DLABEL -l "client1" -L ""
n -t 0 -s 1 -S DLABEL -l "client2" -L ""
n -t 0 -s 2 -S DLABEL -l "router1" -L ""
n -t 0 -s 3 -S DLABEL -l "router2" -L ""
n -t 0 -s 4 -S DLABEL -l "server" -L ""
+ -t 0.5 -s 0 -d 2 -p tcp -e 40 -c 1 -i 0 -a 1 -x {0.0 4.0 0 ------- null}
- -t 0.5 -s 0 -d 2 -p tcp -e 40 -c 1 -i 0 -a 1 -x {0.0 4.0 0 ------- null}
h -t 0.5 -s 0 -d 2 -p tcp -e 40 -c 1 -i 0 -a 1 -x {0.0 4.0 -1 ------- null}
+ -t 0.5 -s 1 -d 2 -p tcp -e 40 -c 2 -i 1 -a 2 -x {1.0 4.0 0 ------- null}
- -t 0.5 -s 1 -d 2 -p tcp -e 40 -c 2 -i 1 -a 2 -x {1.0 4.0 0 ------- null}
h -t 0.5 -s 1 -d 2 -p tcp -e 40 -c 2 -i 1 -a 2 -x {1.0 4.0 -1 ------- null}
r -t 0.60016 -s 0 -d 2 -p tcp -e 40 -c 1 -i 0 -a 1 -x {0.0 4.0 0 ------- null}
+ -t 0.60016 -s 2 -d 3 -p tcp -e 40 -c 1 -i 0 -a 1 -x {0.0 4.0 0 ------- null}
- -t 0.60016 -s 2 -d 3 -p tcp -e 40 -c 1 -i 0 -a 1 -x {0.0 4.0 0 ------- null}
h -t 0.60016 -s 2 -d 3 -p tcp -e 40 -c 1 -i 0 -a 1 -x {0.0 4.0 -1 ------- null}
r -t 0.60016 -s 1 -d 2 -p tcp -e 40 -c 2 -i 1 -a 2 -x {1.0 4.0 0 ------- null}
+ -t 0.60016 -s 2 -d 3 -p tcp -e 40 -c 2 -i 1 -a 2 -x {1.0 4.0 0 ------- null}
- -t 0.60032 -s 2 -d 3 -p tcp -e 40 -c 2 -i 1 -a 2 -x {1.0 4.0 0 ------- null}
h -t 0.60032 -s 2 -d 3 -p tcp -e 40 -c 2 -i 1 -a 2 -x {1.0 4.0 -1 ------- null}
r -t 0.70032 -s 2 -d 3 -p tcp -e 40 -c 1 -i 0 -a 1 -x {0.0 4.0 0 ------- null}
+ -t 0.70032 -s 3 -d 4 -p tcp -e 40 -c 1 -i 0 -a 1 -x {0.0 4.0 0 ------- null}
- -t 0.70032 -s 3 -d 4 -p tcp -e 40 -c 1 -i 0 -a 1 -x {0.0 4.0 0 ------- null}
h -t 0.70032 -s 3 -d 4 -p tcp -e 40 -c 1 -i 0 -a 1 -x {0.0 4.0 -1 ------- null}
r -t 0.70048 -s 2 -d 3 -p tcp -e 40 -c 2 -i 1 -a 2 -x {1.0 4.0 0 ------- null}
+ -t 0.70048 -s 3 -d 4 -p tcp -e 40 -c 2 -i 1 -a 2 -x {1.0 4.0 0 ------- null}
- -t 0.70192 -s 3 -d 4 -p tcp -e 40 -c 2 -i 1 -a 2 -x {1.0 4.0 0 ------- null}
h -t 0.70192 -s 3 -d 4 -p tcp -e 40 -c 2 -i 1 -a 2 -x {1.0 4.0 -1 ------- null}
r -t 0.80192 -s 3 -d 4 -p tcp -e 40 -c 1 -i 0 -a 1 -x {0.0 4.0 0 ------- null}
+ -t 0.80192 -s 4 -d 3 -p ack -e 40 -c 1 -i 2 -a 1 -x {4.0 1.0 0 ------- null}
- -t 0.80192 -s 4 -d 3 -p ack -e 40 -c 1 -i 2 -a 1 -x {4.0 1.0 0 ------- null}
h -t 0.80192 -s 4 -d 3 -p ack -e 40 -c 1 -i 2 -a 1 -x {4.0 1.0 -1 ------- null}
r -t 0.80352 -s 3 -d 4 -p tcp -e 40 -c 2 -i 1 -a 2 -x {1.0 4.0 0 ------- null}
+ -t 0.80352 -s 4 -d 3 -p ack -e 40 -c 2 -i 3 -a 2 -x {4.0 1.0 0 ------- null}
- -t 0.80352 -s 4 -d 3 -p ack -e 40 -c 2 -i 3 -a 2 -x {4.0 1.0 0 ------- null}
h -t 0.80352 -s 4 -d 3 -p ack -e 40 -c 2 -i 3 -a 2 -x {4.0 1.0 -1 ------- null}
r -t 0.90352 -s 4 -d 3 -p ack -e 40 -c 1 -i 2 -a 1 -x {4.0 1.0 0 ------- null}
+ -t 0.90352 -s 3 -d 2 -p ack -e 40 -c 1 -i 2 -a 1 -x {4.0 1.0 0 ------- null}
- -t 0.90352 -s 3 -d 2 -p ack -e 40 -c 1 -i 2 -a 1 -x {4.0 1.0 0 ------- null}
h -t 0.90352 -s 3 -d 2 -p ack -e 40 -c 1 -i 2 -a 1 -x {4.0 1.0 -1 ------- null}
r -t 0.90512 -s 4 -d 3 -p ack -e 40 -c 2 -i 3 -a 2 -x {4.0 1.0 0 ------- null}
+ -t 0.90512 -s 3 -d 2 -p ack -e 40 -c 2 -i 3 -a 2 -x {4.0 1.0 0 ------- null}
- -t 0.90512 -s 3 -d 2 -p ack -e 40 -c 2 -i 3 -a 2 -x {4.0 1.0 0 ------- null}
h -t 0.90512 -s 3 -d 2 -p ack -e 40 -c 2 -i 3 -a 2 -x {4.0 1.0 -1 ------- null}
r -t 1.00368 -s 3 -d 2 -p ack -e 40 -c 1 -i 2 -a 1 -x {4.0 1.0 0 ------- null}
+ -t 1.00368 -s 2 -d 1 -p ack -e 40 -c 1 -i 2 -a 1 -x {4.0 1.0 0 ------- null}
- -t 1.00368 -s 2 -d 1 -p ack -e 40 -c 1 -i 2 -a 1 -x {4.0 1.0 0 ------- null}
h -t 1.00368 -s 2 -d 1 -p ack -e 40 -c 1 -i 2 -a 1 -x {4.0 1.0 -1 ------- null}
r -t 1.00528 -s 3 -d 2 -p ack -e 40 -c 2 -i 3 -a 2 -x {4.0 1.0 0 ------- null}
+ -t 1.00528 -s 2 -d 1 -p ack -e 40 -c 2 -i 3 -a 2 -x {4.0 1.0 0 ------- null}
- -t 1.00528 -s 2 -d 1 -p ack -e 40 -c 2 -i 3 -a 2 -x {4.0 1.0 0 ------- null}
h -t 1.00528 -s 2 -d 1 -p ack -e 40 -c 2 -i 3 -a 2 -x {4.0 1.0 -1 ------- null}
r -t 1.10384 -s 2 -d 1 -p ack -e 40 -c 1 -i 2 -a 1 -x {4.0 1.0 0 ------- null}
+ -t 1.10384 -s 1 -d 2 -p tcp -e 1040 -c 2 -i 4 -a 2 -x {1.0 4.0 1 ------- null}
- -t 1.10384 -s 1 -d 2 -p tcp -e 1040 -c 2 -i 4 -a 2 -x {1.0 4.0 1 ------- null}
h -t 1.10384 -s 1 -d 2 -p tcp -e 1040 -c 2 -i 4 -a 2 -x {1.0 4.0 -1 ------- null}
+ -t 1.10384 -s 1 -d 2 -p tcp -e 1040 -c 2 -i 5 -a 2 -x {1.0 4.0 2 ------- null}
r -t 1.10544 -s 2 -d 1 -p ack -e 40 -c 2 -i 3 -a 2 -x {4.0 1.0 0 ------- null}
+ -t 1.10544 -s 1 -d 2 -p tcp -e 1040 -c 2 -i 6 -a 2 -x {1.0 4.0 3 ------- null}
- -t 1.108 -s 1 -d 2 -p tcp -e 1040 -c 2 -i 5 -a 2 -x {1.0 4.0 2 ------- null}
h -t 1.108 -s 1 -d 2 -p tcp -e 1040 -c 2 -i 5 -a 2 -x {1.0 4.0 -1 ------- null}
- -t 1.11216 -s 1 -d 2 -p tcp -e 1040 -c 2 -i 6 -a 2 -x {1.0 4.0 3 ------- null}
h -t 1.11216 -s 1 -d 2 -p tcp -e 1040 -c 2 -i 6 -a 2 -x {1.0 4.0 -1 ------- null}
r -t 1.208 -s 1 -d 2 -p tcp -e 1040 -c 2 -i 4 -a 2 -x {1.0 4.0 1 ------- null}
+ -t 1.208 -s 2 -d 3 -p tcp -e 1040 -c 2 -i 4 -a 2 -x {1.0 4.0 1 ------- null}
- -t 1.208 -s 2 -d 3 -p tcp -e 1040 -c 2 -i 4 -a 2 -x {1.0 4.0 1 ------- null}
h -t 1.208 -s 2 -d 3 -p tcp -e 1040 -c 2 -i 4 -a 2 -x {1.0 4.0 -1 ------- null}
r -t 1.21216 -s 1 -d 2 -p tcp -e 1040 -c 2 -i 5 -a 2 -x {1.0 4.0 2 ------- null}
+ -t 1.21216 -s 2 -d 3 -p tcp -e 1040 -c 2 -i 5 -a 2 -x {1.0 4.0 2 ------- null}
- -t 1.21216 -s 2 -d 3 -p tcp -e 1040 -c 2 -i 5 -a 2 -x {1.0 4.0 2 ------- null}
h -t 1.21216 -s 2 -d 3 -p tcp -e 1040 -c 2 -i 5 -a 2 -x {1.0 4.0 -1 ------- null}
r -t 1.21632 -s 1 -d 2 -p tcp -e 1040 -c 2 -i 6 -a 2 -x {1.0 4.0 3 ------- null}
+ -t 1.21632 -s 2 -d 3 -p tcp -e 1040 -c 2 -i 6 -a 2 -x {1.0 4.0 3 ------- null}
- -t 1.21632 -s 2 -d 3 -p tcp -e 1040 -c 2 -i 6 -a 2 -x {1.0 4.0 3 ------- null}
h -t 1.21632 -s 2 -d 3 -p tcp -e 1040 -c 2 -i 6 -a 2 -x {1.0 4.0 -1 ------- null}
r -t 1.31216 -s 2 -d 3 -p tcp -e 1040 -c 2 -i 4 -a 2 -x {1.0 4.0 1 ------- null}
+ -t 1.31216 -s 3 -d 4 -p tcp -e 1040 -c 2 -i 4 -a 2 -x {1.0 4.0 1 ------- null}
- -t 1.31216 -s 3 -d 4 -p tcp -e 1040 -c 2 -i 4 -a 2 -x {1.0 4.0 1 ------- null}
h -t 1.31216 -s 3 -d 4 -p tcp -e 1040 -c 2 -i 4 -a 2 -x {1.0 4.0 -1 ------- null}
r -t 1.31632 -s 2 -d 3 -p tcp -e 1040 -c 2 -i 5 -a 2 -x {1.0 4.0 2 ------- null}
+ -t 1.31632 -s 3 -d 4 -p tcp -e 1040 -c 2 -i 5 -a 2 -x {1.0 4.0 2 ------- null}
r -t 1.32048 -s 2 -d 3 -p tcp -e 1040 -c 2 -i 6 -a 2 -x {1.0 4.0 3 ------- null}
+ -t 1.32048 -s 3 -d 4 -p tcp -e 1040 -c 2 -i 6 -a 2 -x {1.0 4.0 3 ------- null}
- -t 1.35376 -s 3 -d 4 -p tcp -e 1040 -c 2 -i 5 -a 2 -x {1.0 4.0 2 ------- null}
h -t 1.35376 -s 3 -d 4 -p tcp -e 1040 -c 2 -i 5 -a 2 -x {1.0 4.0 -1 ------- null}
- -t 1.39536 -s 3 -d 4 -p tcp -e 1040 -c 2 -i 6 -a 2 -x {1.0 4.0 3 ------- null}
h -t 1.39536 -s 3 -d 4 -p tcp -e 1040 -c 2 -i 6 -a 2 -x {1.0 4.0 -1 ------- null}
r -t 1.45376 -s 3 -d 4 -p tcp -e 1040 -c 2 -i 4 -a 2 -x {1.0 4.0 1 ------- null}
+ -t 1.45376 -s 4 -d 3 -p ack -e 40 -c 2 -i 7 -a 2 -x {4.0 1.0 1 ------- null}
- -t 1.45376 -s 4 -d 3 -p ack -e 40 -c 2 -i 7 -a 2 -x {4.0 1.0 1 ------- null}
h -t 1.45376 -s 4 -d 3 -p ack -e 40 -c 2 -i 7 -a 2 -x {4.0 1.0 -1 ------- null}
r -t 1.49536 -s 3 -d 4 -p tcp -e 1040 -c 2 -i 5 -a 2 -x {1.0 4.0 2 ------- null}
+ -t 1.49536 -s 4 -d 3 -p ack -e 40 -c 2 -i 8 -a 2 -x {4.0 1.0 2 ------- null}
- -t 1.49536 -s 4 -d 3 -p ack -e 40 -c 2 -i 8 -a 2 -x {4.0 1.0 2 ------- null}
h -t 1.49536 -s 4 -d 3 -p ack -e 40 -c 2 -i 8 -a 2 -x {4.0 1.0 -1 ------- null}
r -t 1.53696 -s 3 -d 4 -p tcp -e 1040 -c 2 -i 6 -a 2 -x {1.0 4.0 3 ------- null}
+ -t 1.53696 -s 4 -d 3 -p ack -e 40 -c 2 -i 9 -a 2 -x {4.0 1.0 3 ------- null}
- -t 1.53696 -s 4 -d 3 -p ack -e 40 -c 2 -i 9 -a 2 -x {4.0 1.0 3 ------- null}
h -t 1.53696 -s 4 -d 3 -p ack -e 40 -c 2 -i 9 -a 2 -x {4.0 1.0 -1 ------- null}
r -t 1.55536 -s 4 -d 3 -p ack -e 40 -c 2 -i 7 -a 2 -x {4.0 1.0 1 ------- null}
+ -t 1.55536 -s 3 -d 2 -p ack -e 40 -c 2 -i 7 -a 2 -x {4.0 1.0 1 ------- null}
- -t 1.55536 -s 3 -d 2 -p ack -e 40 -c 2 -i 7 -a 2 -x {4.0 1.0 1 ------- null}
h -t 1.55536 -s 3 -d 2 -p ack -e 40 -c 2 -i 7 -a 2 -x {4.0 1.0 -1 ------- null}
r -t 1.59696 -s 4 -d 3 -p ack -e 40 -c 2 -i 8 -a 2 -x {4.0 1.0 2 ------- null}
+ -t 1.59696 -s 3 -d 2 -p ack -e 40 -c 2 -i 8 -a 2 -x {4.0 1.0 2 ------- null}
- -t 1.59696 -s 3 -d 2 -p ack -e 40 -c 2 -i 8 -a 2 -x {4.0 1.0 2 ------- null}
h -t 1.59696 -s 3 -d 2 -p ack -e 40 -c 2 -i 8 -a 2 -x {4.0 1.0 -1 ------- null}
r -t 1.63856 -s 4 -d 3 -p ack -e 40 -c 2 -i 9 -a 2 -x {4.0 1.0 3 ------- null}
+ -t 1.63856 -s 3 -d 2 -p ack -e 40 -c 2 -i 9 -a 2 -x {4.0 1.0 3 ------- null}
- -t 1.63856 -s 3 -d 2 -p ack -e 40 -c 2 -i 9 -a 2 -x {4.0 1.0 3 ------- null}
h -t 1.63856 -s 3 -d 2 -p ack -e 40 -c 2 -i 9 -a 2 -x {4.0 1.0 -1 ------- null}
r -t 1.65552 -s 3 -d 2 -p ack -e 40 -c 2 -i 7 -a 2 -x {4.0 1.0 1 ------- null}
+ -t 1.65552 -s 2 -d 1 -p ack -e 40 -c 2 -i 7 -a 2 -x {4.0 1.0 1 ------- null}
- -t 1.65552 -s 2 -d 1 -p ack -e 40 -c 2 -i 7 -a 2 -x {4.0 1.0 1 ------- null}
h -t 1.65552 -s 2 -d 1 -p ack -e 40 -c 2 -i 7 -a 2 -x {4.0 1.0 -1 ------- null}
r -t 1.69712 -s 3 -d 2 -p ack -e 40 -c 2 -i 8 -a 2 -x {4.0 1.0 2 ------- null}
+ -t 1.69712 -s 2 -d 1 -p ack -e 40 -c 2 -i 8 -a 2 -x {4.0 1.0 2 ------- null}
- -t 1.69712 -s 2 -d 1 -p ack -e 40 -c 2 -i 8 -a 2 -x {4.0 1.0 2 ------- null}
h -t 1.69712 -s 2 -d 1 -p ack -e 40 -c 2 -i 8 -a 2 -x {4.0 1.0 -1 ------- null}
r -t 1.73872 -s 3 -d 2 -p ack -e 40 -c 2 -i 9 -a 2 -x {4.0 1.0 3 ------- null}
+ -t 1.73872 -s 2 -d 1 -p ack -e 40 -c 2 -i 9 -a 2 -x {4.0 1.0 3 ------- null}
- -t 1.73872 -s 2 -d 1 -p ack -e 40 -c 2 -i 9 -a 2 -x {4.0 1.0 3 ------- null}
h -t 1.73872 -s 2 -d 1 -p ack -e 40 -c 2 -i 9 -a 2 -x {4.0 1.0 -1 ------- null}
r -t 1.75568 -s 2 -d 1 -p ack -e 40 -c 2 -i 7 -a 2 -x {4.0 1.0 1 ------- null}
+ -t 1.75568 -s 1 -d 2 -p tcp -e 1040 -c 2 -i 10 -a 2 -x {1.0 4.0 4 ------- null}
- -t 1.75568 -s 1 -d 2 -p tcp -e 1040 -c 2 -i 10 -a 2 -x {1.0 4.0 4 ------- null}
h -t 1.75568 -s 1 -d 2 -p tcp -e 1040 -c 2 -i 10 -a 2 -x {1.0 4.0 -1 ------- null}
r -t 1.79728 -s 2 -d 1 -p ack -e 40 -c 2 -i 8 -a 2 -x {4.0 1.0 2 ------- null}
+ -t 1.79728 -s 1 -d 2 -p tcp -e 1040 -c 2 -i 11 -a 2 -x {1.0 4.0 5 ------- null}
- -t 1.79728 -s 1 -d 2 -p tcp -e 1040 -c 2 -i 11 -a 2 -x {1.0 4.0 5 ------- null}
h -t 1.79728 -s 1 -d 2 -p tcp -e 1040 -c 2 -i 11 -a 2 -x {1.0 4.0 -1 ------- null}
+ -t 1.79728 -s 1 -d 2 -p tcp -e 1040 -c 2 -i 12 -a 2 -x {1.0 4.0 6 ------- null}
- -t 1.80144 -s 1 -d 2 -p tcp -e 1040 -c 2 -i 12 -a 2 -x {1.0 4.0 6 ------- null}
h -t 1.80144 -s 1 -d 2 -p tcp -e 1040 -c 2 -i 12 -a 2 -x {1.0 4.0 -1 ------- null}
r -t 1.83888 -s 2 -d 1 -p ack -e 40 -c 2 -i 9 -a 2 -x {4.0 1.0 3 ------- null}
+ -t 1.83888 -s 1 -d 2 -p tcp -e 1040 -c 2 -i 13 -a 2 -x {1.0 4.0 7 ------- null}
- -t 1.83888 -s 1 -d 2 -p tcp -e 1040 -c 2 -i 13 -a 2 -x {1.0 4.0 7 ------- null}
h -t 1.83888 -s 1 -d 2 -p tcp -e 1040 -c 2 -i 13 -a 2 -x {1.0 4.0 -1 ------- null}
+ -t 1.83888 -s 1 -d 2 -p tcp -e 1040 -c 2 -i 14 -a 2 -x {1.0 4.0 8 ------- null}
- -t 1.84304 -s 1 -d 2 -p tcp -e 1040 -c 2 -i 14 -a 2 -x {1.0 4.0 8 ------- null}
h -t 1.84304 -s 1 -d 2 -p tcp -e 1040 -c 2 -i 14 -a 2 -x {1.0 4.0 -1 ------- null}
r -t 1.85984 -s 1 -d 2 -p tcp -e 1040 -c 2 -i 10 -a 2 -x {1.0 4.0 4 ------- null}
+ -t 1.85984 -s 2 -d 3 -p tcp -e 1040 -c 2 -i 10 -a 2 -x {1.0 4.0 4 ------- null}
- -t 1.85984 -s 2 -d 3 -p tcp -e 1040 -c 2 -i 10 -a 2 -x {1.0 4.0 4 ------- null}
h -t 1.85984 -s 2 -d 3 -p tcp -e 1040 -c 2 -i 10 -a 2 -x {1.0 4.0 -1 ------- null}
r -t 1.90144 -s 1 -d 2 -p tcp -e 1040 -c 2 -i 11 -a 2 -x {1.0 4.0 5 ------- null}
+ -t 1.90144 -s 2 -d 3 -p tcp -e 1040 -c 2 -i 11 -a 2 -x {1.0 4.0 5 ------- null}
- -t 1.90144 -s 2 -d 3 -p tcp -e 1040 -c 2 -i 11 -a 2 -x {1.0 4.0 5 ------- null}
h -t 1.90144 -s 2 -d 3 -p tcp -e 1040 -c 2 -i 11 -a 2 -x {1.0 4.0 -1 ------- null}
r -t 1.9056 -s 1 -d 2 -p tcp -e 1040 -c 2 -i 12 -a 2 -x {1.0 4.0 6 ------- null}
+ -t 1.9056 -s 2 -d 3 -p tcp -e 1040 -c 2 -i 12 -a 2 -x {1.0 4.0 6 ------- null}
- -t 1.9056 -s 2 -d 3 -p tcp -e 1040 -c 2 -i 12 -a 2 -x {1.0 4.0 6 ------- null}
h -t 1.9056 -s 2 -d 3 -p tcp -e 1040 -c 2 -i 12 -a 2 -x {1.0 4.0 -1 ------- null}
r -t 1.94304 -s 1 -d 2 -p tcp -e 1040 -c 2 -i 13 -a 2 -x {1.0 4.0 7 ------- null}
+ -t 1.94304 -s 2 -d 3 -p tcp -e 1040 -c 2 -i 13 -a 2 -x {1.0 4.0 7 ------- null}
- -t 1.94304 -s 2 -d 3 -p tcp -e 1040 -c 2 -i 13 -a 2 -x {1.0 4.0 7 ------- null}
h -t 1.94304 -s 2 -d 3 -p tcp -e 1040 -c 2 -i 13 -a 2 -x {1.0 4.0 -1 ------- null}
r -t 1.9472 -s 1 -d 2 -p tcp -e 1040 -c 2 -i 14 -a 2 -x {1.0 4.0 8 ------- null}
+ -t 1.9472 -s 2 -d 3 -p tcp -e 1040 -c 2 -i 14 -a 2 -x {1.0 4.0 8 ------- null}
- -t 1.9472 -s 2 -d 3 -p tcp -e 1040 -c 2 -i 14 -a 2 -x {1.0 4.0 8 ------- null}
h -t 1.9472 -s 2 -d 3 -p tcp -e 1040 -c 2 -i 14 -a 2 -x {1.0 4.0 -1 ------- null}
r -t 1.964 -s 2 -d 3 -p tcp -e 1040 -c 2 -i 10 -a 2 -x {1.0 4.0 4 ------- null}
+ -t 1.964 -s 3 -d 4 -p tcp -e 1040 -c 2 -i 10 -a 2 -x {1.0 4.0 4 ------- null}
- -t 1.964 -s 3 -d 4 -p tcp -e 1040 -c 2 -i 10 -a 2 -x {1.0 4.0 4 ------- null}
h -t 1.964 -s 3 -d 4 -p tcp -e 1040 -c 2 -i 10 -a 2 -x {1.0 4.0 -1 ------- null}
r -t 2.0056 -s 2 -d 3 -p tcp -e 1040 -c 2 -i 11 -a 2 -x {1.0 4.0 5 ------- null}
+ -t 2.0056 -s 3 -d 4 -p tcp -e 1040 -c 2 -i 11 -a 2 -x {1.0 4.0 5 ------- null}
- -t 2.0056 -s 3 -d 4 -p tcp -e 1040 -c 2 -i 11 -a 2 -x {1.0 4.0 5 ------- null}
h -t 2.0056 -s 3 -d 4 -p tcp -e 1040 -c 2 -i 11 -a 2 -x {1.0 4.0 -1 ------- null}
r -t 2.00976 -s 2 -d 3 -p tcp -e 1040 -c 2 -i 12 -a 2 -x {1.0 4.0 6 ------- null}
+ -t 2.00976 -s 3 -d 4 -p tcp -e 1040 -c 2 -i 12 -a 2 -x {1.0 4.0 6 ------- null}
r -t 2.0472 -s 2 -d 3 -p tcp -e 1040 -c 2 -i 13 -a 2 -x {1.0 4.0 7 ------- null}
+ -t 2.0472 -s 3 -d 4 -p tcp -e 1040 -c 2 -i 13 -a 2 -x {1.0 4.0 7 ------- null}
- -t 2.0472 -s 3 -d 4 -p tcp -e 1040 -c 2 -i 12 -a 2 -x {1.0 4.0 6 ------- null}
h -t 2.0472 -s 3 -d 4 -p tcp -e 1040 -c 2 -i 12 -a 2 -x {1.0 4.0 -1 ------- null}
r -t 2.05136 -s 2 -d 3 -p tcp -e 1040 -c 2 -i 14 -a 2 -x {1.0 4.0 8 ------- null}
+ -t 2.05136 -s 3 -d 4 -p tcp -e 1040 -c 2 -i 14 -a 2 -x {1.0 4.0 8 ------- null}
- -t 2.0888 -s 3 -d 4 -p tcp -e 1040 -c 2 -i 13 -a 2 -x {1.0 4.0 7 ------- null}
h -t 2.0888 -s 3 -d 4 -p tcp -e 1040 -c 2 -i 13 -a 2 -x {1.0 4.0 -1 ------- null}
r -t 2.1056 -s 3 -d 4 -p tcp -e 1040 -c 2 -i 10 -a 2 -x {1.0 4.0 4 ------- null}
+ -t 2.1056 -s 4 -d 3 -p ack -e 40 -c 2 -i 15 -a 2 -x {4.0 1.0 4 ------- null}
- -t 2.1056 -s 4 -d 3 -p ack -e 40 -c 2 -i 15 -a 2 -x {4.0 1.0 4 ------- null}
h -t 2.1056 -s 4 -d 3 -p ack -e 40 -c 2 -i 15 -a 2 -x {4.0 1.0 -1 ------- null}
- -t 2.1304 -s 3 -d 4 -p tcp -e 1040 -c 2 -i 14 -a 2 -x {1.0 4.0 8 ------- null}
h -t 2.1304 -s 3 -d 4 -p tcp -e 1040 -c 2 -i 14 -a 2 -x {1.0 4.0 -1 ------- null}
r -t 2.1472 -s 3 -d 4 -p tcp -e 1040 -c 2 -i 11 -a 2 -x {1.0 4.0 5 ------- null}
+ -t 2.1472 -s 4 -d 3 -p ack -e 40 -c 2 -i 16 -a 2 -x {4.0 1.0 5 ------- null}
- -t 2.1472 -s 4 -d 3 -p ack -e 40 -c 2 -i 16 -a 2 -x {4.0 1.0 5 ------- null}
h -t 2.1472 -s 4 -d 3 -p ack -e 40 -c 2 -i 16 -a 2 -x {4.0 1.0 -1 ------- null}
r -t 2.1888 -s 3 -d 4 -p tcp -e 1040 -c 2 -i 12 -a 2 -x {1.0 4.0 6 ------- null}
+ -t 2.1888 -s 4 -d 3 -p ack -e 40 -c 2 -i 17 -a 2 -x {4.0 1.0 6 ------- null}
- -t 2.1888 -s 4 -d 3 -p ack -e 40 -c 2 -i 17 -a 2 -x {4.0 1.0 6 ------- null}
h -t 2.1888 -s 4 -d 3 -p ack -e 40 -c 2 -i 17 -a 2 -x {4.0 1.0 -1 ------- null}
r -t 2.2072 -s 4 -d 3 -p ack -e 40 -c 2 -i 15 -a 2 -x {4.0 1.0 4 ------- null}
+ -t 2.2072 -s 3 -d 2 -p ack -e 40 -c 2 -i 15 -a 2 -x {4.0 1.0 4 ------- null}
- -t 2.2072 -s 3 -d 2 -p ack -e 40 -c 2 -i 15 -a 2 -x {4.0 1.0 4 ------- null}
h -t 2.2072 -s 3 -d 2 -p ack -e 40 -c 2 -i 15 -a 2 -x {4.0 1.0 -1 ------- null}
r -t 2.2304 -s 3 -d 4 -p tcp -e 1040 -c 2 -i 13 -a 2 -x {1.0 4.0 7 ------- null}
+ -t 2.2304 -s 4 -d 3 -p ack -e 40 -c 2 -i 18 -a 2 -x {4.0 1.0 7 ------- null}
- -t 2.2304 -s 4 -d 3 -p ack -e 40 -c 2 -i 18 -a 2 -x {4.0 1.0 7 ------- null}
h -t 2.2304 -s 4 -d 3 -p ack -e 40 -c 2 -i 18 -a 2 -x {4.0 1.0 -1 ------- null}
r -t 2.2488 -s 4 -d 3 -p ack -e 40 -c 2 -i 16 -a 2 -x {4.0 1.0 5 ------- null}
+ -t 2.2488 -s 3 -d 2 -p ack -e 40 -c 2 -i 16 -a 2 -x {4.0 1.0 5 ------- null}
- -t 2.2488 -s 3 -d 2 -p ack -e 40 -c 2 -i 16 -a 2 -x {4.0 1.0 5 ------- null}
h -t 2.2488 -s 3 -d 2 -p ack -e 40 -c 2 -i 16 -a 2 -x {4.0 1.0 -1 ------- null}
r -t 2.272 -s 3 -d 4 -p tcp -e 1040 -c 2 -i 14 -a 2 -x {1.0 4.0 8 ------- null}
+ -t 2.272 -s 4 -d 3 -p ack -e 40 -c 2 -i 19 -a 2 -x {4.0 1.0 8 ------- null}
- -t 2.272 -s 4 -d 3 -p ack -e 40 -c 2 -i 19 -a 2 -x {4.0 1.0 8 ------- null}
h -t 2.272 -s 4 -d 3 -p ack -e 40 -c 2 -i 19 -a 2 -x {4.0 1.0 -1 ------- null}
r -t 2.2904 -s 4 -d 3 -p ack -e 40 -c 2 -i 17 -a 2 -x {4.0 1.0 6 ------- null}
+ -t 2.2904 -s 3 -d 2 -p ack -e 40 -c 2 -i 17 -a 2 -x {4.0 1.0 6 ------- null}
- -t 2.2904 -s 3 -d 2 -p ack -e 40 -c 2 -i 17 -a 2 -x {4.0 1.0 6 ------- null}
h -t 2.2904 -s 3 -d 2 -p ack -e 40 -c 2 -i 17 -a 2 -x {4.0 1.0 -1 ------- null}
r -t 2.30736 -s 3 -d 2 -p ack -e 40 -c 2 -i 15 -a 2 -x {4.0 1.0 4 ------- null}
+ -t 2.30736 -s 2 -d 1 -p ack -e 40 -c 2 -i 15 -a 2 -x {4.0 1.0 4 ------- null}
- -t 2.30736 -s 2 -d 1 -p ack -e 40 -c 2 -i 15 -a 2 -x {4.0 1.0 4 ------- null}
h -t 2.30736 -s 2 -d 1 -p ack -e 40 -c 2 -i 15 -a 2 -x {4.0 1.0 -1 ------- null}
r -t 2.332 -s 4 -d 3 -p ack -e 40 -c 2 -i 18 -a 2 -x {4.0 1.0 7 ------- null}
+ -t 2.332 -s 3 -d 2 -p ack -e 40 -c 2 -i 18 -a 2 -x {4.0 1.0 7 ------- null}
- -t 2.332 -s 3 -d 2 -p ack -e 40 -c 2 -i 18 -a 2 -x {4.0 1.0 7 ------- null}
h -t 2.332 -s 3 -d 2 -p ack -e 40 -c 2 -i 18 -a 2 -x {4.0 1.0 -1 ------- null}
r -t 2.34896 -s 3 -d 2 -p ack -e 40 -c 2 -i 16 -a 2 -x {4.0 1.0 5 ------- null}
+ -t 2.34896 -s 2 -d 1 -p ack -e 40 -c 2 -i 16 -a 2 -x {4.0 1.0 5 ------- null}
- -t 2.34896 -s 2 -d 1 -p ack -e 40 -c 2 -i 16 -a 2 -x {4.0 1.0 5 ------- null}
h -t 2.34896 -s 2 -d 1 -p ack -e 40 -c 2 -i 16 -a 2 -x {4.0 1.0 -1 ------- null}
r -t 2.3736 -s 4 -d 3 -p ack -e 40 -c 2 -i 19 -a 2 -x {4.0 1.0 8 ------- null}
+ -t 2.3736 -s 3 -d 2 -p ack -e 40 -c 2 -i 19 -a 2 -x {4.0 1.0 8 ------- null}
- -t 2.3736 -s 3 -d 2 -p ack -e 40 -c 2 -i 19 -a 2 -x {4.0 1.0 8 ------- null}
h -t 2.3736 -s 3 -d 2 -p ack -e 40 -c 2 -i 19 -a 2 -x {4.0 1.0 -1 ------- null}
r -t 2.39056 -s 3 -d 2 -p ack -e 40 -c 2 -i 17 -a 2 -x {4.0 1.0 6 ------- null}
+ -t 2.39056 -s 2 -d 1 -p ack -e 40 -c 2 -i 17 -a 2 -x {4.0 1.0 6 ------- null}
- -t 2.39056 -s 2 -d 1 -p ack -e 40 -c 2 -i 17 -a 2 -x {4.0 1.0 6 ------- null}
h -t 2.39056 -s 2 -d 1 -p ack -e 40 -c 2 -i 17 -a 2 -x {4.0 1.0 -1 ------- null}
r -t 2.40752 -s 2 -d 1 -p ack -e 40 -c 2 -i 15 -a 2 -x {4.0 1.0 4 ------- null}
+ -t 2.40752 -s 1 -d 2 -p tcp -e 1040 -c 2 -i 20 -a 2 -x {1.0 4.0 9 ------- null}
- -t 2.40752 -s 1 -d 2 -p tcp -e 1040 -c 2 -i 20 -a 2 -x {1.0 4.0 9 ------- null}
h -t 2.40752 -s 1 -d 2 -p tcp -e 1040 -c 2 -i 20 -a 2 -x {1.0 4.0 -1 ------- null}
+ -t 2.40752 -s 1 -d 2 -p tcp -e 1040 -c 2 -i 21 -a 2 -x {1.0 4.0 10 ------- null}
- -t 2.41168 -s 1 -d 2 -p tcp -e 1040 -c 2 -i 21 -a 2 -x {1.0 4.0 10 ------- null}
h -t 2.41168 -s 1 -d 2 -p tcp -e 1040 -c 2 -i 21 -a 2 -x {1.0 4.0 -1 ------- null}
r -t 2.43216 -s 3 -d 2 -p ack -e 40 -c 2 -i 18 -a 2 -x {4.0 1.0 7 ------- null}
+ -t 2.43216 -s 2 -d 1 -p ack -e 40 -c 2 -i 18 -a 2 -x {4.0 1.0 7 ------- null}
- -t 2.43216 -s 2 -d 1 -p ack -e 40 -c 2 -i 18 -a 2 -x {4.0 1.0 7 ------- null}
h -t 2.43216 -s 2 -d 1 -p ack -e 40 -c 2 -i 18 -a 2 -x {4.0 1.0 -1 ------- null}
r -t 2.44912 -s 2 -d 1 -p ack -e 40 -c 2 -i 16 -a 2 -x {4.0 1.0 5 ------- null}
+ -t 2.44912 -s 1 -d 2 -p tcp -e 1040 -c 2 -i 22 -a 2 -x {1.0 4.0 11 ------- null}
- -t 2.44912 -s 1 -d 2 -p tcp -e 1040 -c 2 -i 22 -a 2 -x {1.0 4.0 11 ------- null}
h -t 2.44912 -s 1 -d 2 -p tcp -e 1040 -c 2 -i 22 -a 2 -x {1.0 4.0 -1 ------- null}
+ -t 2.44912 -s 1 -d 2 -p tcp -e 1040 -c 2 -i 23 -a 2 -x {1.0 4.0 12 ------- null}
- -t 2.45328 -s 1 -d 2 -p tcp -e 1040 -c 2 -i 23 -a 2 -x {1.0 4.0 12 ------- null}
h -t 2.45328 -s 1 -d 2 -p tcp -e 1040 -c 2 -i 23 -a 2 -x {1.0 4.0 -1 ------- null}
r -t 2.47376 -s 3 -d 2 -p ack -e 40 -c 2 -i 19 -a 2 -x {4.0 1.0 8 ------- null}
+ -t 2.47376 -s 2 -d 1 -p ack -e 40 -c 2 -i 19 -a 2 -x {4.0 1.0 8 ------- null}
- -t 2.47376 -s 2 -d 1 -p ack -e 40 -c 2 -i 19 -a 2 -x {4.0 1.0 8 ------- null}
h -t 2.47376 -s 2 -d 1 -p ack -e 40 -c 2 -i 19 -a 2 -x {4.0 1.0 -1 ------- null}
r -t 2.49072 -s 2 -d 1 -p ack -e 40 -c 2 -i 17 -a 2 -x {4.0 1.0 6 ------- null}
+ -t 2.49072 -s 1 -d 2 -p tcp -e 1040 -c 2 -i 24 -a 2 -x {1.0 4.0 13 ------- null}
- -t 2.49072 -s 1 -d 2 -p tcp -e 1040 -c 2 -i 24 -a 2 -x {1.0 4.0 13 ------- null}
h -t 2.49072 -s 1 -d 2 -p tcp -e 1040 -c 2 -i 24 -a 2 -x {1.0 4.0 -1 ------- null}
+ -t 2.49072 -s 1 -d 2 -p tcp -e 1040 -c 2 -i 25 -a 2 -x {1.0 4.0 14 ------- null}
- -t 2.49488 -s 1 -d 2 -p tcp -e 1040 -c 2 -i 25 -a 2 -x {1.0 4.0 14 ------- null}
h -t 2.49488 -s 1 -d 2 -p tcp -e 1040 -c 2 -i 25 -a 2 -x {1.0 4.0 -1 ------- null}
r -t 2.51168 -s 1 -d 2 -p tcp -e 1040 -c 2 -i 20 -a 2 -x {1.0 4.0 9 ------- null}
+ -t 2.51168 -s 2 -d 3 -p tcp -e 1040 -c 2 -i 20 -a 2 -x {1.0 4.0 9 ------- null}
- -t 2.51168 -s 2 -d 3 -p tcp -e 1040 -c 2 -i 20 -a 2 -x {1.0 4.0 9 ------- null}
h -t 2.51168 -s 2 -d 3 -p tcp -e 1040 -c 2 -i 20 -a 2 -x {1.0 4.0 -1 ------- null}
r -t 2.51584 -s 1 -d 2 -p tcp -e 1040 -c 2 -i 21 -a 2 -x {1.0 4.0 10 ------- null}
+ -t 2.51584 -s 2 -d 3 -p tcp -e 1040 -c 2 -i 21 -a 2 -x {1.0 4.0 10 ------- null}
- -t 2.51584 -s 2 -d 3 -p tcp -e 1040 -c 2 -i 21 -a 2 -x {1.0 4.0 10 ------- null}
h -t 2.51584 -s 2 -d 3 -p tcp -e 1040 -c 2 -i 21 -a 2 -x {1.0 4.0 -1 ------- null}
r -t 2.53232 -s 2 -d 1 -p ack -e 40 -c 2 -i 18 -a 2 -x {4.0 1.0 7 ------- null}
+ -t 2.53232 -s 1 -d 2 -p tcp -e 1040 -c 2 -i 26 -a 2 -x {1.0 4.0 15 ------- null}
- -t 2.53232 -s 1 -d 2 -p tcp -e 1040 -c 2 -i 26 -a 2 -x {1.0 4.0 15 ------- null}
h -t 2.53232 -s 1 -d 2 -p tcp -e 1040 -c 2 -i 26 -a 2 -x {1.0 4.0 -1 ------- null}
+ -t 2.53232 -s 1 -d 2 -p tcp -e 1040 -c 2 -i 27 -a 2 -x {1.0 4.0 16 ------- null}
- -t 2.53648 -s 1 -d 2 -p tcp -e 1040 -c 2 -i 27 -a 2 -x {1.0 4.0 16 ------- null}
h -t 2.53648 -s 1 -d 2 -p tcp -e 1040 -c 2 -i 27 -a 2 -x {1.0 4.0 -1 ------- null}
r -t 2.55328 -s 1 -d 2 -p tcp -e 1040 -c 2 -i 22 -a 2 -x {1.0 4.0 11 ------- null}
+ -t 2.55328 -s 2 -d 3 -p tcp -e 1040 -c 2 -i 22 -a 2 -x {1.0 4.0 11 ------- null}
- -t 2.55328 -s 2 -d 3 -p tcp -e 1040 -c 2 -i 22 -a 2 -x {1.0 4.0 11 ------- null}
h -t 2.55328 -s 2 -d 3 -p tcp -e 1040 -c 2 -i 22 -a 2 -x {1.0 4.0 -1 ------- null}
r -t 2.55744 -s 1 -d 2 -p tcp -e 1040 -c 2 -i 23 -a 2 -x {1.0 4.0 12 ------- null}
+ -t 2.55744 -s 2 -d 3 -p tcp -e 1040 -c 2 -i 23 -a 2 -x {1.0 4.0 12 ------- null}
- -t 2.55744 -s 2 -d 3 -p tcp -e 1040 -c 2 -i 23 -a 2 -x {1.0 4.0 12 ------- null}
h -t 2.55744 -s 2 -d 3 -p tcp -e 1040 -c 2 -i 23 -a 2 -x {1.0 4.0 -1 ------- null}
r -t 2.57392 -s 2 -d 1 -p ack -e 40 -c 2 -i 19 -a 2 -x {4.0 1.0 8 ------- null}
+ -t 2.57392 -s 1 -d 2 -p tcp -e 1040 -c 2 -i 28 -a 2 -x {1.0 4.0 17 ------- null}
- -t 2.57392 -s 1 -d 2 -p tcp -e 1040 -c 2 -i 28 -a 2 -x {1.0 4.0 17 ------- null}
h -t 2.57392 -s 1 -d 2 -p tcp -e 1040 -c 2 -i 28 -a 2 -x {1.0 4.0 -1 ------- null}
+ -t 2.57392 -s 1 -d 2 -p tcp -e 1040 -c 2 -i 29 -a 2 -x {1.0 4.0 18 ------- null}
- -t 2.57808 -s 1 -d 2 -p tcp -e 1040 -c 2 -i 29 -a 2 -x {1.0 4.0 18 ------- null}
h -t 2.57808 -s 1 -d 2 -p tcp -e 1040 -c 2 -i 29 -a 2 -x {1.0 4.0 -1 ------- null}
r -t 2.59488 -s 1 -d 2 -p tcp -e 1040 -c 2 -i 24 -a 2 -x {1.0 4.0 13 ------- null}
+ -t 2.59488 -s 2 -d 3 -p tcp -e 1040 -c 2 -i 24 -a 2 -x {1.0 4.0 13 ------- null}
- -t 2.59488 -s 2 -d 3 -p tcp -e 1040 -c 2 -i 24 -a 2 -x {1.0 4.0 13 ------- null}
h -t 2.59488 -s 2 -d 3 -p tcp -e 1040 -c 2 -i 24 -a 2 -x {1.0 4.0 -1 ------- null}
r -t 2.59904 -s 1 -d 2 -p tcp -e 1040 -c 2 -i 25 -a 2 -x {1.0 4.0 14 ------- null}
+ -t 2.59904 -s 2 -d 3 -p tcp -e 1040 -c 2 -i 25 -a 2 -x {1.0 4.0 14 ------- null}
- -t 2.59904 -s 2 -d 3 -p tcp -e 1040 -c 2 -i 25 -a 2 -x {1.0 4.0 14 ------- null}
h -t 2.59904 -s 2 -d 3 -p tcp -e 1040 -c 2 -i 25 -a 2 -x {1.0 4.0 -1 ------- null}
r -t 2.61584 -s 2 -d 3 -p tcp -e 1040 -c 2 -i 20 -a 2 -x {1.0 4.0 9 ------- null}
+ -t 2.61584 -s 3 -d 4 -p tcp -e 1040 -c 2 -i 20 -a 2 -x {1.0 4.0 9 ------- null}
- -t 2.61584 -s 3 -d 4 -p tcp -e 1040 -c 2 -i 20 -a 2 -x {1.0 4.0 9 ------- null}
h -t 2.61584 -s 3 -d 4 -p tcp -e 1040 -c 2 -i 20 -a 2 -x {1.0 4.0 -1 ------- null}
r -t 2.62 -s 2 -d 3 -p tcp -e 1040 -c 2 -i 21 -a 2 -x {1.0 4.0 10 ------- null}
+ -t 2.62 -s 3 -d 4 -p tcp -e 1040 -c 2 -i 21 -a 2 -x {1.0 4.0 10 ------- null}
r -t 2.63648 -s 1 -d 2 -p tcp -e 1040 -c 2 -i 26 -a 2 -x {1.0 4.0 15 ------- null}
+ -t 2.63648 -s 2 -d 3 -p tcp -e 1040 -c 2 -i 26 -a 2 -x {1.0 4.0 15 ------- null}
- -t 2.63648 -s 2 -d 3 -p tcp -e 1040 -c 2 -i 26 -a 2 -x {1.0 4.0 15 ------- null}
h -t 2.63648 -s 2 -d 3 -p tcp -e 1040 -c 2 -i 26 -a 2 -x {1.0 4.0 -1 ------- null}
r -t 2.64064 -s 1 -d 2 -p tcp -e 1040 -c 2 -i 27 -a 2 -x {1.0 4.0 16 ------- null}
+ -t 2.64064 -s 2 -d 3 -p tcp -e 1040 -c 2 -i 27 -a 2 -x {1.0 4.0 16 ------- null}
- -t 2.64064 -s 2 -d 3 -p tcp -e 1040 -c 2 -i 27 -a 2 -x {1.0 4.0 16 ------- null}
h -t 2.64064 -s 2 -d 3 -p tcp -e 1040 -c 2 -i 27 -a 2 -x {1.0 4.0 -1 ------- null}
r -t 2.65744 -s 2 -d 3 -p tcp -e 1040 -c 2 -i 22 -a 2 -x {1.0 4.0 11 ------- null}
+ -t 2.65744 -s 3 -d 4 -p tcp -e 1040 -c 2 -i 22 -a 2 -x {1.0 4.0 11 ------- null}
- -t 2.65744 -s 3 -d 4 -p tcp -e 1040 -c 2 -i 21 -a 2 -x {1.0 4.0 10 ------- null}
h -t 2.65744 -s 3 -d 4 -p tcp -e 1040 -c 2 -i 21 -a 2 -x {1.0 4.0 -1 ------- null}
r -t 2.6616 -s 2 -d 3 -p tcp -e 1040 -c 2 -i 23 -a 2 -x {1.0 4.0 12 ------- null}
+ -t 2.6616 -s 3 -d 4 -p tcp -e 1040 -c 2 -i 23 -a 2 -x {1.0 4.0 12 ------- null}
r -t 2.67808 -s 1 -d 2 -p tcp -e 1040 -c 2 -i 28 -a 2 -x {1.0 4.0 17 ------- null}
+ -t 2.67808 -s 2 -d 3 -p tcp -e 1040 -c 2 -i 28 -a 2 -x {1.0 4.0 17 ------- null}
- -t 2.67808 -s 2 -d 3 -p tcp -e 1040 -c 2 -i 28 -a 2 -x {1.0 4.0 17 ------- null}
h -t 2.67808 -s 2 -d 3 -p tcp -e 1040 -c 2 -i 28 -a 2 -x {1.0 4.0 -1 ------- null}
r -t 2.68224 -s 1 -d 2 -p tcp -e 1040 -c 2 -i 29 -a 2 -x {1.0 4.0 18 ------- null}
+ -t 2.68224 -s 2 -d 3 -p tcp -e 1040 -c 2 -i 29 -a 2 -x {1.0 4.0 18 ------- null}
- -t 2.68224 -s 2 -d 3 -p tcp -e 1040 -c 2 -i 29 -a 2 -x {1.0 4.0 18 ------- null}
h -t 2.68224 -s 2 -d 3 -p tcp -e 1040 -c 2 -i 29 -a 2 -x {1.0 4.0 -1 ------- null}
r -t 2.69904 -s 2 -d 3 -p tcp -e 1040 -c 2 -i 24 -a 2 -x {1.0 4.0 13 ------- null}
+ -t 2.69904 -s 3 -d 4 -p tcp -e 1040 -c 2 -i 24 -a 2 -x {1.0 4.0 13 ------- null}
- -t 2.69904 -s 3 -d 4 -p tcp -e 1040 -c 2 -i 22 -a 2 -x {1.0 4.0 11 ------- null}
h -t 2.69904 -s 3 -d 4 -p tcp -e 1040 -c 2 -i 22 -a 2 -x {1.0 4.0 -1 ------- null}
r -t 2.7032 -s 2 -d 3 -p tcp -e 1040 -c 2 -i 25 -a 2 -x {1.0 4.0 14 ------- null}
+ -t 2.7032 -s 3 -d 4 -p tcp -e 1040 -c 2 -i 25 -a 2 -x {1.0 4.0 14 ------- null}
r -t 2.74064 -s 2 -d 3 -p tcp -e 1040 -c 2 -i 26 -a 2 -x {1.0 4.0 15 ------- null}
+ -t 2.74064 -s 3 -d 4 -p tcp -e 1040 -c 2 -i 26 -a 2 -x {1.0 4.0 15 ------- null}
- -t 2.74064 -s 3 -d 4 -p tcp -e 1040 -c 2 -i 23 -a 2 -x {1.0 4.0 12 ------- null}
h -t 2.74064 -s 3 -d 4 -p tcp -e 1040 -c 2 -i 23 -a 2 -x {1.0 4.0 -1 ------- null}
r -t 2.7448 -s 2 -d 3 -p tcp -e 1040 -c 2 -i 27 -a 2 -x {1.0 4.0 16 ------- null}
+ -t 2.7448 -s 3 -d 4 -p tcp -e 1040 -c 2 -i 27 -a 2 -x {1.0 4.0 16 ------- null}
r -t 2.75744 -s 3 -d 4 -p tcp -e 1040 -c 2 -i 20 -a 2 -x {1.0 4.0 9 ------- null}
+ -t 2.75744 -s 4 -d 3 -p ack -e 40 -c 2 -i 30 -a 2 -x {4.0 1.0 9 ------- null}
- -t 2.75744 -s 4 -d 3 -p ack -e 40 -c 2 -i 30 -a 2 -x {4.0 1.0 9 ------- null}
h -t 2.75744 -s 4 -d 3 -p ack -e 40 -c 2 -i 30 -a 2 -x {4.0 1.0 -1 ------- null}
r -t 2.78224 -s 2 -d 3 -p tcp -e 1040 -c 2 -i 28 -a 2 -x {1.0 4.0 17 ------- null}
+ -t 2.78224 -s 3 -d 4 -p tcp -e 1040 -c 2 -i 28 -a 2 -x {1.0 4.0 17 ------- null}
- -t 2.78224 -s 3 -d 4 -p tcp -e 1040 -c 2 -i 24 -a 2 -x {1.0 4.0 13 ------- null}
h -t 2.78224 -s 3 -d 4 -p tcp -e 1040 -c 2 -i 24 -a 2 -x {1.0 4.0 -1 ------- null}
r -t 2.7864 -s 2 -d 3 -p tcp -e 1040 -c 2 -i 29 -a 2 -x {1.0 4.0 18 ------- null}
+ -t 2.7864 -s 3 -d 4 -p tcp -e 1040 -c 2 -i 29 -a 2 -x {1.0 4.0 18 ------- null}
r -t 2.79904 -s 3 -d 4 -p tcp -e 1040 -c 2 -i 21 -a 2 -x {1.0 4.0 10 ------- null}
+ -t 2.79904 -s 4 -d 3 -p ack -e 40 -c 2 -i 31 -a 2 -x {4.0 1.0 10 ------- null}
- -t 2.79904 -s 4 -d 3 -p ack -e 40 -c 2 -i 31 -a 2 -x {4.0 1.0 10 ------- null}
h -t 2.79904 -s 4 -d 3 -p ack -e 40 -c 2 -i 31 -a 2 -x {4.0 1.0 -1 ------- null}
- -t 2.82384 -s 3 -d 4 -p tcp -e 1040 -c 2 -i 25 -a 2 -x {1.0 4.0 14 ------- null}
h -t 2.82384 -s 3 -d 4 -p tcp -e 1040 -c 2 -i 25 -a 2 -x {1.0 4.0 -1 ------- null}
r -t 2.84064 -s 3 -d 4 -p tcp -e 1040 -c 2 -i 22 -a 2 -x {1.0 4.0 11 ------- null}
+ -t 2.84064 -s 4 -d 3 -p ack -e 40 -c 2 -i 32 -a 2 -x {4.0 1.0 11 ------- null}
- -t 2.84064 -s 4 -d 3 -p ack -e 40 -c 2 -i 32 -a 2 -x {4.0 1.0 11 ------- null}
h -t 2.84064 -s 4 -d 3 -p ack -e 40 -c 2 -i 32 -a 2 -x {4.0 1.0 -1 ------- null}
r -t 2.85904 -s 4 -d 3 -p ack -e 40 -c 2 -i 30 -a 2 -x {4.0 1.0 9 ------- null}
+ -t 2.85904 -s 3 -d 2 -p ack -e 40 -c 2 -i 30 -a 2 -x {4.0 1.0 9 ------- null}
- -t 2.85904 -s 3 -d 2 -p ack -e 40 -c 2 -i 30 -a 2 -x {4.0 1.0 9 ------- null}
h -t 2.85904 -s 3 -d 2 -p ack -e 40 -c 2 -i 30 -a 2 -x {4.0 1.0 -1 ------- null}
- -t 2.86544 -s 3 -d 4 -p tcp -e 1040 -c 2 -i 26 -a 2 -x {1.0 4.0 15 ------- null}