+ 0.5 0 1 tcp 40 ------- 1 0.0 1.0 0 0
- 0.5 0 1 tcp 40 ------- 1 0.0 1.0 0 0
+ 0.5 1 2 tcp 40 ------- 2 1.1 2.0 0 1
- 0.5 1 2 tcp 40 ------- 2 1.1 2.0 0 1
r 0.60016 0 1 tcp 40 ------- 1 0.0 1.0 0 0
+ 0.60016 1 0 ack 40 ------- 1 1.0 0.0 0 2
- 0.60016 1 0 ack 40 ------- 1 1.0 0.0 0 2
r 0.60016 1 2 tcp 40 ------- 2 1.1 2.0 0 1
+ 0.60016 2 1 ack 40 ------- 2 2.0 1.1 0 3
- 0.60016 2 1 ack 40 ------- 2 2.0 1.1 0 3
r 0.70032 1 0 ack 40 ------- 1 1.0 0.0 0 2
+ 0.70032 0 1 tcp 1040 ------- 1 0.0 1.0 1 4
- 0.70032 0 1 tcp 1040 ------- 1 0.0 1.0 1 4
+ 0.70032 0 1 tcp 1040 ------- 1 0.0 1.0 2 5
r 0.70032 2 1 ack 40 ------- 2 2.0 1.1 0 3
+ 0.70032 1 2 tcp 1040 ------- 2 1.1 2.0 1 6
- 0.70032 1 2 tcp 1040 ------- 2 1.1 2.0 1 6
+ 0.70032 1 2 tcp 1040 ------- 2 1.1 2.0 2 7
- 0.70448 0 1 tcp 1040 ------- 1 0.0 1.0 2 5
- 0.70448 1 2 tcp 1040 ------- 2 1.1 2.0 2 7
r 0.80448 0 1 tcp 1040 ------- 1 0.0 1.0 1 4
+ 0.80448 1 0 ack 40 ------- 1 1.0 0.0 1 8
- 0.80448 1 0 ack 40 ------- 1 1.0 0.0 1 8
r 0.80448 1 2 tcp 1040 ------- 2 1.1 2.0 1 6
+ 0.80448 2 1 ack 40 ------- 2 2.0 1.1 1 9
- 0.80448 2 1 ack 40 ------- 2 2.0 1.1 1 9
r 0.80864 0 1 tcp 1040 ------- 1 0.0 1.0 2 5
+ 0.80864 1 0 ack 40 ------- 1 1.0 0.0 2 10
- 0.80864 1 0 ack 40 ------- 1 1.0 0.0 2 10
r 0.80864 1 2 tcp 1040 ------- 2 1.1 2.0 2 7
+ 0.80864 2 1 ack 40 ------- 2 2.0 1.1 2 11
- 0.80864 2 1 ack 40 ------- 2 2.0 1.1 2 11
r 0.90464 1 0 ack 40 ------- 1 1.0 0.0 1 8
+ 0.90464 0 1 tcp 1040 ------- 1 0.0 1.0 3 12
- 0.90464 0 1 tcp 1040 ------- 1 0.0 1.0 3 12
+ 0.90464 0 1 tcp 1040 ------- 1 0.0 1.0 4 13
r 0.90464 2 1 ack 40 ------- 2 2.0 1.1 1 9
+ 0.90464 1 2 tcp 1040 ------- 2 1.1 2.0 3 14
- 0.90464 1 2 tcp 1040 ------- 2 1.1 2.0 3 14
+ 0.90464 1 2 tcp 1040 ------- 2 1.1 2.0 4 15
r 0.9088 1 0 ack 40 ------- 1 1.0 0.0 2 10
+ 0.9088 0 1 tcp 1040 ------- 1 0.0 1.0 5 16
+ 0.9088 0 1 tcp 1040 ------- 1 0.0 1.0 6 17
r 0.9088 2 1 ack 40 ------- 2 2.0 1.1 2 11
+ 0.9088 1 2 tcp 1040 ------- 2 1.1 2.0 5 18
+ 0.9088 1 2 tcp 1040 ------- 2 1.1 2.0 6 19
- 0.9088 0 1 tcp 1040 ------- 1 0.0 1.0 4 13
- 0.9088 1 2 tcp 1040 ------- 2 1.1 2.0 4 15
- 0.91296 0 1 tcp 1040 ------- 1 0.0 1.0 5 16
- 0.91296 1 2 tcp 1040 ------- 2 1.1 2.0 5 18
- 0.91712 0 1 tcp 1040 ------- 1 0.0 1.0 6 17
- 0.91712 1 2 tcp 1040 ------- 2 1.1 2.0 6 19
r 1.0088 0 1 tcp 1040 ------- 1 0.0 1.0 3 12
+ 1.0088 1 0 ack 40 ------- 1 1.0 0.0 3 20
- 1.0088 1 0 ack 40 ------- 1 1.0 0.0 3 20
r 1.0088 1 2 tcp 1040 ------- 2 1.1 2.0 3 14
+ 1.0088 2 1 ack 40 ------- 2 2.0 1.1 3 21
- 1.0088 2 1 ack 40 ------- 2 2.0 1.1 3 21
r 1.01296 0 1 tcp 1040 ------- 1 0.0 1.0 4 13
+ 1.01296 1 0 ack 40 ------- 1 1.0 0.0 4 22
- 1.01296 1 0 ack 40 ------- 1 1.0 0.0 4 22
r 1.01296 1 2 tcp 1040 ------- 2 1.1 2.0 4 15
+ 1.01296 2 1 ack 40 ------- 2 2.0 1.1 4 23
- 1.01296 2 1 ack 40 ------- 2 2.0 1.1 4 23
r 1.01712 0 1 tcp 1040 ------- 1 0.0 1.0 5 16
+ 1.01712 1 0 ack 40 ------- 1 1.0 0.0 5 24
- 1.01712 1 0 ack 40 ------- 1 1.0 0.0 5 24
r 1.01712 1 2 tcp 1040 ------- 2 1.1 2.0 5 18
+ 1.01712 2 1 ack 40 ------- 2 2.0 1.1 5 25
- 1.01712 2 1 ack 40 ------- 2 2.0 1.1 5 25
r 1.02128 0 1 tcp 1040 ------- 1 0.0 1.0 6 17
+ 1.02128 1 0 ack 40 ------- 1 1.0 0.0 6 26
- 1.02128 1 0 ack 40 ------- 1 1.0 0.0 6 26
r 1.02128 1 2 tcp 1040 ------- 2 1.1 2.0 6 19
+ 1.02128 2 1 ack 40 ------- 2 2.0 1.1 6 27
- 1.02128 2 1 ack 40 ------- 2 2.0 1.1 6 27
r 1.10896 1 0 ack 40 ------- 1 1.0 0.0 3 20
+ 1.10896 0 1 tcp 1040 ------- 1 0.0 1.0 7 28
- 1.10896 0 1 tcp 1040 ------- 1 0.0 1.0 7 28
+ 1.10896 0 1 tcp 1040 ------- 1 0.0 1.0 8 29
r 1.10896 2 1 ack 40 ------- 2 2.0 1.1 3 21
+ 1.10896 1 2 tcp 1040 ------- 2 1.1 2.0 7 30
- 1.10896 1 2 tcp 1040 ------- 2 1.1 2.0 7 30
+ 1.10896 1 2 tcp 1040 ------- 2 1.1 2.0 8 31
r 1.11312 1 0 ack 40 ------- 1 1.0 0.0 4 22
+ 1.11312 0 1 tcp 1040 ------- 1 0.0 1.0 9 32
+ 1.11312 0 1 tcp 1040 ------- 1 0.0 1.0 10 33
r 1.11312 2 1 ack 40 ------- 2 2.0 1.1 4 23
+ 1.11312 1 2 tcp 1040 ------- 2 1.1 2.0 9 34
+ 1.11312 1 2 tcp 1040 ------- 2 1.1 2.0 10 35
- 1.11312 0 1 tcp 1040 ------- 1 0.0 1.0 8 29
- 1.11312 1 2 tcp 1040 ------- 2 1.1 2.0 8 31
- 1.11728 0 1 tcp 1040 ------- 1 0.0 1.0 9 32
- 1.11728 1 2 tcp 1040 ------- 2 1.1 2.0 9 34
r 1.11728 1 0 ack 40 ------- 1 1.0 0.0 5 24
+ 1.11728 0 1 tcp 1040 ------- 1 0.0 1.0 11 36
+ 1.11728 0 1 tcp 1040 ------- 1 0.0 1.0 12 37
r 1.11728 2 1 ack 40 ------- 2 2.0 1.1 5 25
+ 1.11728 1 2 tcp 1040 ------- 2 1.1 2.0 11 38
+ 1.11728 1 2 tcp 1040 ------- 2 1.1 2.0 12 39
- 1.12144 0 1 tcp 1040 ------- 1 0.0 1.0 10 33
- 1.12144 1 2 tcp 1040 ------- 2 1.1 2.0 10 35
r 1.12144 1 0 ack 40 ------- 1 1.0 0.0 6 26
+ 1.12144 0 1 tcp 1040 ------- 1 0.0 1.0 13 40
+ 1.12144 0 1 tcp 1040 ------- 1 0.0 1.0 14 41
r 1.12144 2 1 ack 40 ------- 2 2.0 1.1 6 27
+ 1.12144 1 2 tcp 1040 ------- 2 1.1 2.0 13 42
+ 1.12144 1 2 tcp 1040 ------- 2 1.1 2.0 14 43
- 1.1256 0 1 tcp 1040 ------- 1 0.0 1.0 11 36
- 1.1256 1 2 tcp 1040 ------- 2 1.1 2.0 11 38
- 1.12976 0 1 tcp 1040 ------- 1 0.0 1.0 12 37
- 1.12976 1 2 tcp 1040 ------- 2 1.1 2.0 12 39
- 1.13392 0 1 tcp 1040 ------- 1 0.0 1.0 13 40
- 1.13392 1 2 tcp 1040 ------- 2 1.1 2.0 13 42
- 1.13808 0 1 tcp 1040 ------- 1 0.0 1.0 14 41
- 1.13808 1 2 tcp 1040 ------- 2 1.1 2.0 14 43
r 1.21312 0 1 tcp 1040 ------- 1 0.0 1.0 7 28
+ 1.21312 1 0 ack 40 ------- 1 1.0 0.0 7 44
- 1.21312 1 0 ack 40 ------- 1 1.0 0.0 7 44
r 1.21312 1 2 tcp 1040 ------- 2 1.1 2.0 7 30
+ 1.21312 2 1 ack 40 ------- 2 2.0 1.1 7 45
- 1.21312 2 1 ack 40 ------- 2 2.0 1.1 7 45
r 1.21728 0 1 tcp 1040 ------- 1 0.0 1.0 8 29
+ 1.21728 1 0 ack 40 ------- 1 1.0 0.0 8 46
- 1.21728 1 0 ack 40 ------- 1 1.0 0.0 8 46
r 1.21728 1 2 tcp 1040 ------- 2 1.1 2.0 8 31
+ 1.21728 2 1 ack 40 ------- 2 2.0 1.1 8 47
- 1.21728 2 1 ack 40 ------- 2 2.0 1.1 8 47
r 1.22144 0 1 tcp 1040 ------- 1 0.0 1.0 9 32
+ 1.22144 1 0 ack 40 ------- 1 1.0 0.0 9 48
- 1.22144 1 0 ack 40 ------- 1 1.0 0.0 9 48
r 1.22144 1 2 tcp 1040 ------- 2 1.1 2.0 9 34
+ 1.22144 2 1 ack 40 ------- 2 2.0 1.1 9 49
- 1.22144 2 1 ack 40 ------- 2 2.0 1.1 9 49
r 1.2256 0 1 tcp 1040 ------- 1 0.0 1.0 10 33
+ 1.2256 1 0 ack 40 ------- 1 1.0 0.0 10 50
- 1.2256 1 0 ack 40 ------- 1 1.0 0.0 10 50
r 1.2256 1 2 tcp 1040 ------- 2 1.1 2.0 10 35
+ 1.2256 2 1 ack 40 ------- 2 2.0 1.1 10 51
- 1.2256 2 1 ack 40 ------- 2 2.0 1.1 10 51
r 1.22976 0 1 tcp 1040 ------- 1 0.0 1.0 11 36
+ 1.22976 1 0 ack 40 ------- 1 1.0 0.0 11 52
- 1.22976 1 0 ack 40 ------- 1 1.0 0.0 11 52
r 1.22976 1 2 tcp 1040 ------- 2 1.1 2.0 11 38
+ 1.22976 2 1 ack 40 ------- 2 2.0 1.1 11 53
- 1.22976 2 1 ack 40 ------- 2 2.0 1.1 11 53
r 1.23392 0 1 tcp 1040 ------- 1 0.0 1.0 12 37
+ 1.23392 1 0 ack 40 ------- 1 1.0 0.0 12 54
- 1.23392 1 0 ack 40 ------- 1 1.0 0.0 12 54
r 1.23392 1 2 tcp 1040 ------- 2 1.1 2.0 12 39
+ 1.23392 2 1 ack 40 ------- 2 2.0 1.1 12 55
- 1.23392 2 1 ack 40 ------- 2 2.0 1.1 12 55
r 1.23808 0 1 tcp 1040 ------- 1 0.0 1.0 13 40
+ 1.23808 1 0 ack 40 ------- 1 1.0 0.0 13 56
- 1.23808 1 0 ack 40 ------- 1 1.0 0.0 13 56
r 1.23808 1 2 tcp 1040 ------- 2 1.1 2.0 13 42
+ 1.23808 2 1 ack 40 ------- 2 2.0 1.1 13 57
- 1.23808 2 1 ack 40 ------- 2 2.0 1.1 13 57
r 1.24224 0 1 tcp 1040 ------- 1 0.0 1.0 14 41
+ 1.24224 1 0 ack 40 ------- 1 1.0 0.0 14 58
- 1.24224 1 0 ack 40 ------- 1 1.0 0.0 14 58
r 1.24224 1 2 tcp 1040 ------- 2 1.1 2.0 14 43
+ 1.24224 2 1 ack 40 ------- 2 2.0 1.1 14 59
- 1.24224 2 1 ack 40 ------- 2 2.0 1.1 14 59
r 1.31328 1 0 ack 40 ------- 1 1.0 0.0 7 44
+ 1.31328 0 1 tcp 1040 ------- 1 0.0 1.0 15 60
- 1.31328 0 1 tcp 1040 ------- 1 0.0 1.0 15 60
+ 1.31328 0 1 tcp 1040 ------- 1 0.0 1.0 16 61
r 1.31328 2 1 ack 40 ------- 2 2.0 1.1 7 45
+ 1.31328 1 2 tcp 1040 ------- 2 1.1 2.0 15 62
- 1.31328 1 2 tcp 1040 ------- 2 1.1 2.0 15 62
+ 1.31328 1 2 tcp 1040 ------- 2 1.1 2.0 16 63
r 1.31744 1 0 ack 40 ------- 1 1.0 0.0 8 46
+ 1.31744 0 1 tcp 1040 ------- 1 0.0 1.0 17 64
+ 1.31744 0 1 tcp 1040 ------- 1 0.0 1.0 18 65
r 1.31744 2 1 ack 40 ------- 2 2.0 1.1 8 47
+ 1.31744 1 2 tcp 1040 ------- 2 1.1 2.0 17 66
+ 1.31744 1 2 tcp 1040 ------- 2 1.1 2.0 18 67
- 1.31744 0 1 tcp 1040 ------- 1 0.0 1.0 16 61
- 1.31744 1 2 tcp 1040 ------- 2 1.1 2.0 16 63
r 1.3216 1 0 ack 40 ------- 1 1.0 0.0 9 48
+ 1.3216 0 1 tcp 1040 ------- 1 0.0 1.0 19 68
+ 1.3216 0 1 tcp 1040 ------- 1 0.0 1.0 20 69
r 1.3216 2 1 ack 40 ------- 2 2.0 1.1 9 49
+ 1.3216 1 2 tcp 1040 ------- 2 1.1 2.0 19 70
+ 1.3216 1 2 tcp 1040 ------- 2 1.1 2.0 20 71
- 1.3216 0 1 tcp 1040 ------- 1 0.0 1.0 17 64
- 1.3216 1 2 tcp 1040 ------- 2 1.1 2.0 17 66
r 1.32576 1 0 ack 40 ------- 1 1.0 0.0 10 50
+ 1.32576 0 1 tcp 1040 ------- 1 0.0 1.0 21 72
+ 1.32576 0 1 tcp 1040 ------- 1 0.0 1.0 22 73
r 1.32576 2 1 ack 40 ------- 2 2.0 1.1 10 51
+ 1.32576 1 2 tcp 1040 ------- 2 1.1 2.0 21 74
+ 1.32576 1 2 tcp 1040 ------- 2 1.1 2.0 22 75
- 1.32576 0 1 tcp 1040 ------- 1 0.0 1.0 18 65
- 1.32576 1 2 tcp 1040 ------- 2 1.1 2.0 18 67
r 1.32992 1 0 ack 40 ------- 1 1.0 0.0 11 52
+ 1.32992 0 1 tcp 1040 ------- 1 0.0 1.0 23 76
+ 1.32992 0 1 tcp 1040 ------- 1 0.0 1.0 24 77
r 1.32992 2 1 ack 40 ------- 2 2.0 1.1 11 53
+ 1.32992 1 2 tcp 1040 ------- 2 1.1 2.0 23 78
+ 1.32992 1 2 tcp 1040 ------- 2 1.1 2.0 24 79
- 1.32992 0 1 tcp 1040 ------- 1 0.0 1.0 19 68
- 1.32992 1 2 tcp 1040 ------- 2 1.1 2.0 19 70
r 1.33408 1 0 ack 40 ------- 1 1.0 0.0 12 54
+ 1.33408 0 1 tcp 1040 ------- 1 0.0 1.0 25 80
+ 1.33408 0 1 tcp 1040 ------- 1 0.0 1.0 26 81
r 1.33408 2 1 ack 40 ------- 2 2.0 1.1 12 55
+ 1.33408 1 2 tcp 1040 ------- 2 1.1 2.0 25 82
+ 1.33408 1 2 tcp 1040 ------- 2 1.1 2.0 26 83
- 1.33408 0 1 tcp 1040 ------- 1 0.0 1.0 20 69
- 1.33408 1 2 tcp 1040 ------- 2 1.1 2.0 20 71
r 1.33824 1 0 ack 40 ------- 1 1.0 0.0 13 56
+ 1.33824 0 1 tcp 1040 ------- 1 0.0 1.0 27 84
+ 1.33824 0 1 tcp 1040 ------- 1 0.0 1.0 28 85
r 1.33824 2 1 ack 40 ------- 2 2.0 1.1 13 57
+ 1.33824 1 2 tcp 1040 ------- 2 1.1 2.0 27 86
+ 1.33824 1 2 tcp 1040 ------- 2 1.1 2.0 28 87
- 1.33824 0 1 tcp 1040 ------- 1 0.0 1.0 21 72
- 1.33824 1 2 tcp 1040 ------- 2 1.1 2.0 21 74
r 1.3424 1 0 ack 40 ------- 1 1.0 0.0 14 58
+ 1.3424 0 1 tcp 1040 ------- 1 0.0 1.0 29 88
+ 1.3424 0 1 tcp 1040 ------- 1 0.0 1.0 30 89
r 1.3424 2 1 ack 40 ------- 2 2.0 1.1 14 59
+ 1.3424 1 2 tcp 1040 ------- 2 1.1 2.0 29 90
+ 1.3424 1 2 tcp 1040 ------- 2 1.1 2.0 30 91
- 1.3424 0 1 tcp 1040 ------- 1 0.0 1.0 22 73
- 1.3424 1 2 tcp 1040 ------- 2 1.1 2.0 22 75
- 1.34656 0 1 tcp 1040 ------- 1 0.0 1.0 23 76
- 1.34656 1 2 tcp 1040 ------- 2 1.1 2.0 23 78
- 1.35072 0 1 tcp 1040 ------- 1 0.0 1.0 24 77
- 1.35072 1 2 tcp 1040 ------- 2 1.1 2.0 24 79
- 1.35488 0 1 tcp 1040 ------- 1 0.0 1.0 25 80
- 1.35488 1 2 tcp 1040 ------- 2 1.1 2.0 25 82
- 1.35904 0 1 tcp 1040 ------- 1 0.0 1.0 26 81
- 1.35904 1 2 tcp 1040 ------- 2 1.1 2.0 26 83
- 1.3632 0 1 tcp 1040 ------- 1 0.0 1.0 27 84
- 1.3632 1 2 tcp 1040 ------- 2 1.1 2.0 27 86
- 1.36736 0 1 tcp 1040 ------- 1 0.0 1.0 28 85
- 1.36736 1 2 tcp 1040 ------- 2 1.1 2.0 28 87
- 1.37152 0 1 tcp 1040 ------- 1 0.0 1.0 29 88
- 1.37152 1 2 tcp 1040 ------- 2 1.1 2.0 29 90
- 1.37568 0 1 tcp 1040 ------- 1 0.0 1.0 30 89
- 1.37568 1 2 tcp 1040 ------- 2 1.1 2.0 30 91
r 1.41744 0 1 tcp 1040 ------- 1 0.0 1.0 15 60
+ 1.41744 1 0 ack 40 ------- 1 1.0 0.0 15 92
- 1.41744 1 0 ack 40 ------- 1 1.0 0.0 15 92
r 1.41744 1 2 tcp 1040 ------- 2 1.1 2.0 15 62
+ 1.41744 2 1 ack 40 ------- 2 2.0 1.1 15 93
- 1.41744 2 1 ack 40 ------- 2 2.0 1.1 15 93
r 1.4216 0 1 tcp 1040 ------- 1 0.0 1.0 16 61
+ 1.4216 1 0 ack 40 ------- 1 1.0 0.0 16 94
- 1.4216 1 0 ack 40 ------- 1 1.0 0.0 16 94
r 1.4216 1 2 tcp 1040 ------- 2 1.1 2.0 16 63
+ 1.4216 2 1 ack 40 ------- 2 2.0 1.1 16 95
- 1.4216 2 1 ack 40 ------- 2 2.0 1.1 16 95
r 1.42576 0 1 tcp 1040 ------- 1 0.0 1.0 17 64
+ 1.42576 1 0 ack 40 ------- 1 1.0 0.0 17 96
- 1.42576 1 0 ack 40 ------- 1 1.0 0.0 17 96
r 1.42576 1 2 tcp 1040 ------- 2 1.1 2.0 17 66
+ 1.42576 2 1 ack 40 ------- 2 2.0 1.1 17 97
- 1.42576 2 1 ack 40 ------- 2 2.0 1.1 17 97
r 1.42992 0 1 tcp 1040 ------- 1 0.0 1.0 18 65
+ 1.42992 1 0 ack 40 ------- 1 1.0 0.0 18 98
- 1.42992 1 0 ack 40 ------- 1 1.0 0.0 18 98
r 1.42992 1 2 tcp 1040 ------- 2 1.1 2.0 18 67
+ 1.42992 2 1 ack 40 ------- 2 2.0 1.1 18 99
- 1.42992 2 1 ack 40 ------- 2 2.0 1.1 18 99
r 1.43408 0 1 tcp 1040 ------- 1 0.0 1.0 19 68
+ 1.43408 1 0 ack 40 ------- 1 1.0 0.0 19 100
- 1.43408 1 0 ack 40 ------- 1 1.0 0.0 19 100
r 1.43408 1 2 tcp 1040 ------- 2 1.1 2.0 19 70
+ 1.43408 2 1 ack 40 ------- 2 2.0 1.1 19 101
- 1.43408 2 1 ack 40 ------- 2 2.0 1.1 19 101
r 1.43824 0 1 tcp 1040 ------- 1 0.0 1.0 20 69
+ 1.43824 1 0 ack 40 ------- 1 1.0 0.0 20 102
- 1.43824 1 0 ack 40 ------- 1 1.0 0.0 20 102
r 1.43824 1 2 tcp 1040 ------- 2 1.1 2.0 20 71
+ 1.43824 2 1 ack 40 ------- 2 2.0 1.1 20 103
- 1.43824 2 1 ack 40 ------- 2 2.0 1.1 20 103
r 1.4424 0 1 tcp 1040 ------- 1 0.0 1.0 21 72
+ 1.4424 1 0 ack 40 ------- 1 1.0 0.0 21 104
- 1.4424 1 0 ack 40 ------- 1 1.0 0.0 21 104
r 1.4424 1 2 tcp 1040 ------- 2 1.1 2.0 21 74
+ 1.4424 2 1 ack 40 ------- 2 2.0 1.1 21 105
- 1.4424 2 1 ack 40 ------- 2 2.0 1.1 21 105
r 1.44656 0 1 tcp 1040 ------- 1 0.0 1.0 22 73
+ 1.44656 1 0 ack 40 ------- 1 1.0 0.0 22 106
- 1.44656 1 0 ack 40 ------- 1 1.0 0.0 22 106
r 1.44656 1 2 tcp 1040 ------- 2 1.1 2.0 22 75
+ 1.44656 2 1 ack 40 ------- 2 2.0 1.1 22 107
- 1.44656 2 1 ack 40 ------- 2 2.0 1.1 22 107
r 1.45072 0 1 tcp 1040 ------- 1 0.0 1.0 23 76
+ 1.45072 1 0 ack 40 ------- 1 1.0 0.0 23 108
- 1.45072 1 0 ack 40 ------- 1 1.0 0.0 23 108
r 1.45072 1 2 tcp 1040 ------- 2 1.1 2.0 23 78
+ 1.45072 2 1 ack 40 ------- 2 2.0 1.1 23 109
- 1.45072 2 1 ack 40 ------- 2 2.0 1.1 23 109
r 1.45488 0 1 tcp 1040 ------- 1 0.0 1.0 24 77
+ 1.45488 1 0 ack 40 ------- 1 1.0 0.0 24 110
- 1.45488 1 0 ack 40 ------- 1 1.0 0.0 24 110
r 1.45488 1 2 tcp 1040 ------- 2 1.1 2.0 24 79
+ 1.45488 2 1 ack 40 ------- 2 2.0 1.1 24 111
- 1.45488 2 1 ack 40 ------- 2 2.0 1.1 24 111
r 1.45904 0 1 tcp 1040 ------- 1 0.0 1.0 25 80
+ 1.45904 1 0 ack 40 ------- 1 1.0 0.0 25 112
- 1.45904 1 0 ack 40 ------- 1 1.0 0.0 25 112
r 1.45904 1 2 tcp 1040 ------- 2 1.1 2.0 25 82
+ 1.45904 2 1 ack 40 ------- 2 2.0 1.1 25 113
- 1.45904 2 1 ack 40 ------- 2 2.0 1.1 25 113
r 1.4632 0 1 tcp 1040 ------- 1 0.0 1.0 26 81
+ 1.4632 1 0 ack 40 ------- 1 1.0 0.0 26 114
- 1.4632 1 0 ack 40 ------- 1 1.0 0.0 26 114
r 1.4632 1 2 tcp 1040 ------- 2 1.1 2.0 26 83
+ 1.4632 2 1 ack 40 ------- 2 2.0 1.1 26 115
- 1.4632 2 1 ack 40 ------- 2 2.0 1.1 26 115
r 1.46736 0 1 tcp 1040 ------- 1 0.0 1.0 27 84
+ 1.46736 1 0 ack 40 ------- 1 1.0 0.0 27 116
- 1.46736 1 0 ack 40 ------- 1 1.0 0.0 27 116
r 1.46736 1 2 tcp 1040 ------- 2 1.1 2.0 27 86
+ 1.46736 2 1 ack 40 ------- 2 2.0 1.1 27 117
- 1.46736 2 1 ack 40 ------- 2 2.0 1.1 27 117
r 1.47152 0 1 tcp 1040 ------- 1 0.0 1.0 28 85
+ 1.47152 1 0 ack 40 ------- 1 1.0 0.0 28 118
- 1.47152 1 0 ack 40 ------- 1 1.0 0.0 28 118
r 1.47152 1 2 tcp 1040 ------- 2 1.1 2.0 28 87
+ 1.47152 2 1 ack 40 ------- 2 2.0 1.1 28 119
- 1.47152 2 1 ack 40 ------- 2 2.0 1.1 28 119
r 1.47568 0 1 tcp 1040 ------- 1 0.0 1.0 29 88
+ 1.47568 1 0 ack 40 ------- 1 1.0 0.0 29 120
- 1.47568 1 0 ack 40 ------- 1 1.0 0.0 29 120
r 1.47568 1 2 tcp 1040 ------- 2 1.1 2.0 29 90
+ 1.47568 2 1 ack 40 ------- 2 2.0 1.1 29 121
- 1.47568 2 1 ack 40 ------- 2 2.0 1.1 29 121
r 1.47984 0 1 tcp 1040 ------- 1 0.0 1.0 30 89
+ 1.47984 1 0 ack 40 ------- 1 1.0 0.0 30 122
- 1.47984 1 0 ack 40 ------- 1 1.0 0.0 30 122
r 1.47984 1 2 tcp 1040 ------- 2 1.1 2.0 30 91
+ 1.47984 2 1 ack 40 ------- 2 2.0 1.1 30 123
- 1.47984 2 1 ack 40 ------- 2 2.0 1.1 30 123
r 1.5176 1 0 ack 40 ------- 1 1.0 0.0 15 92
+ 1.5176 0 1 tcp 1040 ------- 1 0.0 1.0 31 124
- 1.5176 0 1 tcp 1040 ------- 1 0.0 1.0 31 124
+ 1.5176 0 1 tcp 1040 ------- 1 0.0 1.0 32 125
r 1.5176 2 1 ack 40 ------- 2 2.0 1.1 15 93
+ 1.5176 1 2 tcp 1040 ------- 2 1.1 2.0 31 126
- 1.5176 1 2 tcp 1040 ------- 2 1.1 2.0 31 126
+ 1.5176 1 2 tcp 1040 ------- 2 1.1 2.0 32 127
r 1.52176 1 0 ack 40 ------- 1 1.0 0.0 16 94
+ 1.52176 0 1 tcp 1040 ------- 1 0.0 1.0 33 128
+ 1.52176 0 1 tcp 1040 ------- 1 0.0 1.0 34 129
r 1.52176 2 1 ack 40 ------- 2 2.0 1.1 16 95
+ 1.52176 1 2 tcp 1040 ------- 2 1.1 2.0 33 130
+ 1.52176 1 2 tcp 1040 ------- 2 1.1 2.0 34 131
- 1.52176 0 1 tcp 1040 ------- 1 0.0 1.0 32 125
- 1.52176 1 2 tcp 1040 ------- 2 1.1 2.0 32 127
r 1.52592 1 0 ack 40 ------- 1 1.0 0.0 17 96
+ 1.52592 0 1 tcp 1040 ------- 1 0.0 1.0 35 132
+ 1.52592 0 1 tcp 1040 ------- 1 0.0 1.0 36 133
r 1.52592 2 1 ack 40 ------- 2 2.0 1.1 17 97
+ 1.52592 1 2 tcp 1040 ------- 2 1.1 2.0 35 134
+ 1.52592 1 2 tcp 1040 ------- 2 1.1 2.0 36 135
- 1.52592 0 1 tcp 1040 ------- 1 0.0 1.0 33 128
- 1.52592 1 2 tcp 1040 ------- 2 1.1 2.0 33 130
r 1.53008 1 0 ack 40 ------- 1 1.0 0.0 18 98
+ 1.53008 0 1 tcp 1040 ------- 1 0.0 1.0 37 136
+ 1.53008 0 1 tcp 1040 ------- 1 0.0 1.0 38 137
r 1.53008 2 1 ack 40 ------- 2 2.0 1.1 18 99
+ 1.53008 1 2 tcp 1040 ------- 2 1.1 2.0 37 138
+ 1.53008 1 2 tcp 1040 ------- 2 1.1 2.0 38 139
- 1.53008 0 1 tcp 1040 ------- 1 0.0 1.0 34 129
- 1.53008 1 2 tcp 1040 ------- 2 1.1 2.0 34 131
r 1.53424 1 0 ack 40 ------- 1 1.0 0.0 19 100
+ 1.53424 0 1 tcp 1040 ------- 1 0.0 1.0 39 140
r 1.53424 2 1 ack 40 ------- 2 2.0 1.1 19 101
+ 1.53424 1 2 tcp 1040 ------- 2 1.1 2.0 39 141
- 1.53424 0 1 tcp 1040 ------- 1 0.0 1.0 35 132
- 1.53424 1 2 tcp 1040 ------- 2 1.1 2.0 35 134
r 1.5384 1 0 ack 40 ------- 1 1.0 0.0 20 102
+ 1.5384 0 1 tcp 1040 ------- 1 0.0 1.0 40 142
r 1.5384 2 1 ack 40 ------- 2 2.0 1.1 20 103
+ 1.5384 1 2 tcp 1040 ------- 2 1.1 2.0 40 143
- 1.5384 0 1 tcp 1040 ------- 1 0.0 1.0 36 133
- 1.5384 1 2 tcp 1040 ------- 2 1.1 2.0 36 135
r 1.54256 1 0 ack 40 ------- 1 1.0 0.0 21 104
+ 1.54256 0 1 tcp 1040 ------- 1 0.0 1.0 41 144
r 1.54256 2 1 ack 40 ------- 2 2.0 1.1 21 105
+ 1.54256 1 2 tcp 1040 ------- 2 1.1 2.0 41 145
- 1.54256 0 1 tcp 1040 ------- 1 0.0 1.0 37 136
- 1.54256 1 2 tcp 1040 ------- 2 1.1 2.0 37 138
r 1.54672 1 0 ack 40 ------- 1 1.0 0.0 22 106
+ 1.54672 0 1 tcp 1040 ------- 1 0.0 1.0 42 146
r 1.54672 2 1 ack 40 ------- 2 2.0 1.1 22 107
+ 1.54672 1 2 tcp 1040 ------- 2 1.1 2.0 42 147
- 1.54672 0 1 tcp 1040 ------- 1 0.0 1.0 38 137
- 1.54672 1 2 tcp 1040 ------- 2 1.1 2.0 38 139
r 1.55088 1 0 ack 40 ------- 1 1.0 0.0 23 108
+ 1.55088 0 1 tcp 1040 ------- 1 0.0 1.0 43 148
r 1.55088 2 1 ack 40 ------- 2 2.0 1.1 23 109
+ 1.55088 1 2 tcp 1040 ------- 2 1.1 2.0 43 149
- 1.55088 0 1 tcp 1040 ------- 1 0.0 1.0 39 140
- 1.55088 1 2 tcp 1040 ------- 2 1.1 2.0 39 141
r 1.55504 1 0 ack 40 ------- 1 1.0 0.0 24 110
+ 1.55504 0 1 tcp 1040 ------- 1 0.0 1.0 44 150
r 1.55504 2 1 ack 40 ------- 2 2.0 1.1 24 111
+ 1.55504 1 2 tcp 1040 ------- 2 1.1 2.0 44 151
- 1.55504 0 1 tcp 1040 ------- 1 0.0 1.0 40 142
- 1.55504 1 2 tcp 1040 ------- 2 1.1 2.0 40 143
r 1.5592 1 0 ack 40 ------- 1 1.0 0.0 25 112
+ 1.5592 0 1 tcp 1040 ------- 1 0.0 1.0 45 152
r 1.5592 2 1 ack 40 ------- 2 2.0 1.1 25 113
+ 1.5592 1 2 tcp 1040 ------- 2 1.1 2.0 45 153
- 1.5592 0 1 tcp 1040 ------- 1 0.0 1.0 41 144
- 1.5592 1 2 tcp 1040 ------- 2 1.1 2.0 41 145
r 1.56336 1 0 ack 40 ------- 1 1.0 0.0 26 114
+ 1.56336 0 1 tcp 1040 ------- 1 0.0 1.0 46 154
r 1.56336 2 1 ack 40 ------- 2 2.0 1.1 26 115
+ 1.56336 1 2 tcp 1040 ------- 2 1.1 2.0 46 155
- 1.56336 0 1 tcp 1040 ------- 1 0.0 1.0 42 146
- 1.56336 1 2 tcp 1040 ------- 2 1.1 2.0 42 147
r 1.56752 1 0 ack 40 ------- 1 1.0 0.0 27 116
+ 1.56752 0 1 tcp 1040 ------- 1 0.0 1.0 47 156
r 1.56752 2 1 ack 40 ------- 2 2.0 1.1 27 117
+ 1.56752 1 2 tcp 1040 ------- 2 1.1 2.0 47 157
- 1.56752 0 1 tcp 1040 ------- 1 0.0 1.0 43 148
- 1.56752 1 2 tcp 1040 ------- 2 1.1 2.0 43 149
r 1.57168 1 0 ack 40 ------- 1 1.0 0.0 28 118
+ 1.57168 0 1 tcp 1040 ------- 1 0.0 1.0 48 158
r 1.57168 2 1 ack 40 ------- 2 2.0 1.1 28 119
+ 1.57168 1 2 tcp 1040 ------- 2 1.1 2.0 48 159
- 1.57168 0 1 tcp 1040 ------- 1 0.0 1.0 44 150
- 1.57168 1 2 tcp 1040 ------- 2 1.1 2.0 44 151
r 1.57584 1 0 ack 40 ------- 1 1.0 0.0 29 120
+ 1.57584 0 1 tcp 1040 ------- 1 0.0 1.0 49 160
r 1.57584 2 1 ack 40 ------- 2 2.0 1.1 29 121
+ 1.57584 1 2 tcp 1040 ------- 2 1.1 2.0 49 161
- 1.57584 0 1 tcp 1040 ------- 1 0.0 1.0 45 152
- 1.57584 1 2 tcp 1040 ------- 2 1.1 2.0 45 153
r 1.58 1 0 ack 40 ------- 1 1.0 0.0 30 122
+ 1.58 0 1 tcp 1040 ------- 1 0.0 1.0 50 162
r 1.58 2 1 ack 40 ------- 2 2.0 1.1 30 123
+ 1.58 1 2 tcp 1040 ------- 2 1.1 2.0 50 163
- 1.58 0 1 tcp 1040 ------- 1 0.0 1.0 46 154
- 1.58 1 2 tcp 1040 ------- 2 1.1 2.0 46 155
- 1.58416 0 1 tcp 1040 ------- 1 0.0 1.0 47 156
- 1.58416 1 2 tcp 1040 ------- 2 1.1 2.0 47 157
- 1.58832 0 1 tcp 1040 ------- 1 0.0 1.0 48 158
- 1.58832 1 2 tcp 1040 ------- 2 1.1 2.0 48 159
- 1.59248 0 1 tcp 1040 ------- 1 0.0 1.0 49 160
- 1.59248 1 2 tcp 1040 ------- 2 1.1 2.0 49 161
- 1.59664 0 1 tcp 1040 ------- 1 0.0 1.0 50 162
- 1.59664 1 2 tcp 1040 ------- 2 1.1 2.0 50 163
r 1.62176 0 1 tcp 1040 ------- 1 0.0 1.0 31 124
+ 1.62176 1 0 ack 40 ------- 1 1.0 0.0 31 164
- 1.62176 1 0 ack 40 ------- 1 1.0 0.0 31 164
r 1.62176 1 2 tcp 1040 ------- 2 1.1 2.0 31 126
+ 1.62176 2 1 ack 40 ------- 2 2.0 1.1 31 165
- 1.62176 2 1 ack 40 ------- 2 2.0 1.1 31 165
r 1.62592 0 1 tcp 1040 ------- 1 0.0 1.0 32 125
+ 1.62592 1 0 ack 40 ------- 1 1.0 0.0 32 166
- 1.62592 1 0 ack 40 ------- 1 1.0 0.0 32 166
r 1.62592 1 2 tcp 1040 ------- 2 1.1 2.0 32 127
+ 1.62592 2 1 ack 40 ------- 2 2.0 1.1 32 167
- 1.62592 2 1 ack 40 ------- 2 2.0 1.1 32 167
r 1.63008 0 1 tcp 1040 ------- 1 0.0 1.0 33 128
+ 1.63008 1 0 ack 40 ------- 1 1.0 0.0 33 168
- 1.63008 1 0 ack 40 ------- 1 1.0 0.0 33 168
r 1.63008 1 2 tcp 1040 ------- 2 1.1 2.0 33 130
+ 1.63008 2 1 ack 40 ------- 2 2.0 1.1 33 169
- 1.63008 2 1 ack 40 ------- 2 2.0 1.1 33 169
r 1.63424 0 1 tcp 1040 ------- 1 0.0 1.0 34 129
+ 1.63424 1 0 ack 40 ------- 1 1.0 0.0 34 170
- 1.63424 1 0 ack 40 ------- 1 1.0 0.0 34 170
r 1.63424 1 2 tcp 1040 ------- 2 1.1 2.0 34 131
+ 1.63424 2 1 ack 40 ------- 2 2.0 1.1 34 171
- 1.63424 2 1 ack 40 ------- 2 2.0 1.1 34 171
r 1.6384 0 1 tcp 1040 ------- 1 0.0 1.0 35 132
+ 1.6384 1 0 ack 40 ------- 1 1.0 0.0 35 172
- 1.6384 1 0 ack 40 ------- 1 1.0 0.0 35 172
r 1.6384 1 2 tcp 1040 ------- 2 1.1 2.0 35 134
+ 1.6384 2 1 ack 40 ------- 2 2.0 1.1 35 173
- 1.6384 2 1 ack 40 ------- 2 2.0 1.1 35 173
r 1.64256 0 1 tcp 1040 ------- 1 0.0 1.0 36 133
+ 1.64256 1 0 ack 40 ------- 1 1.0 0.0 36 174
- 1.64256 1 0 ack 40 ------- 1 1.0 0.0 36 174
r 1.64256 1 2 tcp 1040 ------- 2 1.1 2.0 36 135
+ 1.64256 2 1 ack 40 ------- 2 2.0 1.1 36 175
- 1.64256 2 1 ack 40 ------- 2 2.0 1.1 36 175
r 1.64672 0 1 tcp 1040 ------- 1 0.0 1.0 37 136
+ 1.64672 1 0 ack 40 ------- 1 1.0 0.0 37 176
- 1.64672 1 0 ack 40 ------- 1 1.0 0.0 37 176
r 1.64672 1 2 tcp 1040 ------- 2 1.1 2.0 37 138
+ 1.64672 2 1 ack 40 ------- 2 2.0 1.1 37 177
- 1.64672 2 1 ack 40 ------- 2 2.0 1.1 37 177
r 1.65088 0 1 tcp 1040 ------- 1 0.0 1.0 38 137
+ 1.65088 1 0 ack 40 ------- 1 1.0 0.0 38 178
- 1.65088 1 0 ack 40 ------- 1 1.0 0.0 38 178
r 1.65088 1 2 tcp 1040 ------- 2 1.1 2.0 38 139
+ 1.65088 2 1 ack 40 ------- 2 2.0 1.1 38 179
- 1.65088 2 1 ack 40 ------- 2 2.0 1.1 38 179
r 1.65504 0 1 tcp 1040 ------- 1 0.0 1.0 39 140
+ 1.65504 1 0 ack 40 ------- 1 1.0 0.0 39 180
- 1.65504 1 0 ack 40 ------- 1 1.0 0.0 39 180
r 1.65504 1 2 tcp 1040 ------- 2 1.1 2.0 39 141
+ 1.65504 2 1 ack 40 ------- 2 2.0 1.1 39 181
- 1.65504 2 1 ack 40 ------- 2 2.0 1.1 39 181
r 1.6592 0 1 tcp 1040 ------- 1 0.0 1.0 40 142
+ 1.6592 1 0 ack 40 ------- 1 1.0 0.0 40 182
- 1.6592 1 0 ack 40 ------- 1 1.0 0.0 40 182
r 1.6592 1 2 tcp 1040 ------- 2 1.1 2.0 40 143
+ 1.6592 2 1 ack 40 ------- 2 2.0 1.1 40 183
- 1.6592 2 1 ack 40 ------- 2 2.0 1.1 40 183
r 1.66336 0 1 tcp 1040 ------- 1 0.0 1.0 41 144
+ 1.66336 1 0 ack 40 ------- 1 1.0 0.0 41 184
- 1.66336 1 0 ack 40 ------- 1 1.0 0.0 41 184
r 1.66336 1 2 tcp 1040 ------- 2 1.1 2.0 41 145
+ 1.66336 2 1 ack 40 ------- 2 2.0 1.1 41 185
- 1.66336 2 1 ack 40 ------- 2 2.0 1.1 41 185
r 1.66752 0 1 tcp 1040 ------- 1 0.0 1.0 42 146
+ 1.66752 1 0 ack 40 ------- 1 1.0 0.0 42 186
- 1.66752 1 0 ack 40 ------- 1 1.0 0.0 42 186
r 1.66752 1 2 tcp 1040 ------- 2 1.1 2.0 42 147
+ 1.66752 2 1 ack 40 ------- 2 2.0 1.1 42 187
- 1.66752 2 1 ack 40 ------- 2 2.0 1.1 42 187
r 1.67168 0 1 tcp 1040 ------- 1 0.0 1.0 43 148
+ 1.67168 1 0 ack 40 ------- 1 1.0 0.0 43 188
- 1.67168 1 0 ack 40 ------- 1 1.0 0.0 43 188
r 1.67168 1 2 tcp 1040 ------- 2 1.1 2.0 43 149
+ 1.67168 2 1 ack 40 ------- 2 2.0 1.1 43 189
- 1.67168 2 1 ack 40 ------- 2 2.0 1.1 43 189
r 1.67584 0 1 tcp 1040 ------- 1 0.0 1.0 44 150
+ 1.67584 1 0 ack 40 ------- 1 1.0 0.0 44 190
- 1.67584 1 0 ack 40 ------- 1 1.0 0.0 44 190
r 1.67584 1 2 tcp 1040 ------- 2 1.1 2.0 44 151
+ 1.67584 2 1 ack 40 ------- 2 2.0 1.1 44 191
- 1.67584 2 1 ack 40 ------- 2 2.0 1.1 44 191
r 1.68 0 1 tcp 1040 ------- 1 0.0 1.0 45 152
+ 1.68 1 0 ack 40 ------- 1 1.0 0.0 45 192
- 1.68 1 0 ack 40 ------- 1 1.0 0.0 45 192
r 1.68 1 2 tcp 1040 ------- 2 1.1 2.0 45 153
+ 1.68 2 1 ack 40 ------- 2 2.0 1.1 45 193
- 1.68 2 1 ack 40 ------- 2 2.0 1.1 45 193
r 1.68416 0 1 tcp 1040 ------- 1 0.0 1.0 46 154
+ 1.68416 1 0 ack 40 ------- 1 1.0 0.0 46 194
- 1.68416 1 0 ack 40 ------- 1 1.0 0.0 46 194
r 1.68416 1 2 tcp 1040 ------- 2 1.1 2.0 46 155
+ 1.68416 2 1 ack 40 ------- 2 2.0 1.1 46 195
- 1.68416 2 1 ack 40 ------- 2 2.0 1.1 46 195
r 1.68832 0 1 tcp 1040 ------- 1 0.0 1.0 47 156
+ 1.68832 1 0 ack 40 ------- 1 1.0 0.0 47 196
- 1.68832 1 0 ack 40 ------- 1 1.0 0.0 47 196
r 1.68832 1 2 tcp 1040 ------- 2 1.1 2.0 47 157
+ 1.68832 2 1 ack 40 ------- 2 2.0 1.1 47 197
- 1.68832 2 1 ack 40 ------- 2 2.0 1.1 47 197
r 1.69248 0 1 tcp 1040 ------- 1 0.0 1.0 48 158
+ 1.69248 1 0 ack 40 ------- 1 1.0 0.0 48 198
- 1.69248 1 0 ack 40 ------- 1 1.0 0.0 48 198
r 1.69248 1 2 tcp 1040 ------- 2 1.1 2.0 48 159
+ 1.69248 2 1 ack 40 ------- 2 2.0 1.1 48 199
- 1.69248 2 1 ack 40 ------- 2 2.0 1.1 48 199
r 1.69664 0 1 tcp 1040 ------- 1 0.0 1.0 49 160
+ 1.69664 1 0 ack 40 ------- 1 1.0 0.0 49 200
- 1.69664 1 0 ack 40 ------- 1 1.0 0.0 49 200
r 1.69664 1 2 tcp 1040 ------- 2 1.1 2.0 49 161
+ 1.69664 2 1 ack 40 ------- 2 2.0 1.1 49 201
- 1.69664 2 1 ack 40 ------- 2 2.0 1.1 49 201
r 1.7008 0 1 tcp 1040 ------- 1 0.0 1.0 50 162
+ 1.7008 1 0 ack 40 ------- 1 1.0 0.0 50 202
- 1.7008 1 0 ack 40 ------- 1 1.0 0.0 50 202
r 1.7008 1 2 tcp 1040 ------- 2 1.1 2.0 50 163
+ 1.7008 2 1 ack 40 ------- 2 2.0 1.1 50 203
- 1.7008 2 1 ack 40 ------- 2 2.0 1.1 50 203
r 1.72192 1 0 ack 40 ------- 1 1.0 0.0 31 164
+ 1.72192 0 1 tcp 1040 ------- 1 0.0 1.0 51 204
- 1.72192 0 1 tcp 1040 ------- 1 0.0 1.0 51 204
r 1.72192 2 1 ack 40 ------- 2 2.0 1.1 31 165
+ 1.72192 1 2 tcp 1040 ------- 2 1.1 2.0 51 205
- 1.72192 1 2 tcp 1040 ------- 2 1.1 2.0 51 205
r 1.72608 1 0 ack 40 ------- 1 1.0 0.0 32 166
+ 1.72608 0 1 tcp 1040 ------- 1 0.0 1.0 52 206
r 1.72608 2 1 ack 40 ------- 2 2.0 1.1 32 167
+ 1.72608 1 2 tcp 1040 ------- 2 1.1 2.0 52 207
- 1.72608 0 1 tcp 1040 ------- 1 0.0 1.0 52 206
- 1.72608 1 2 tcp 1040 ------- 2 1.1 2.0 52 207
r 1.73024 1 0 ack 40 ------- 1 1.0 0.0 33 168
+ 1.73024 0 1 tcp 1040 ------- 1 0.0 1.0 53 208
r 1.73024 2 1 ack 40 ------- 2 2.0 1.1 33 169
+ 1.73024 1 2 tcp 1040 ------- 2 1.1 2.0 53 209
- 1.73024 0 1 tcp 1040 ------- 1 0.0 1.0 53 208
- 1.73024 1 2 tcp 1040 ------- 2 1.1 2.0 53 209
r 1.7344 1 0 ack 40 ------- 1 1.0 0.0 34 170
+ 1.7344 0 1 tcp 1040 ------- 1 0.0 1.0 54 210
r 1.7344 2 1 ack 40 ------- 2 2.0 1.1 34 171
+ 1.7344 1 2 tcp 1040 ------- 2 1.1 2.0 54 211
- 1.7344 0 1 tcp 1040 ------- 1 0.0 1.0 54 210
- 1.7344 1 2 tcp 1040 ------- 2 1.1 2.0 54 211
r 1.73856 1 0 ack 40 ------- 1 1.0 0.0 35 172
+ 1.73856 0 1 tcp 1040 ------- 1 0.0 1.0 55 212
r 1.73856 2 1 ack 40 ------- 2 2.0 1.1 35 173
+ 1.73856 1 2 tcp 1040 ------- 2 1.1 2.0 55 213
- 1.73856 0 1 tcp 1040 ------- 1 0.0 1.0 55 212
- 1.73856 1 2 tcp 1040 ------- 2 1.1 2.0 55 213
r 1.74272 1 0 ack 40 ------- 1 1.0 0.0 36 174
+ 1.74272 0 1 tcp 1040 ------- 1 0.0 1.0 56 214
r 1.74272 2 1 ack 40 ------- 2 2.0 1.1 36 175
+ 1.74272 1 2 tcp 1040 ------- 2 1.1 2.0 56 215
- 1.74272 0 1 tcp 1040 ------- 1 0.0 1.0 56 214
- 1.74272 1 2 tcp 1040 ------- 2 1.1 2.0 56 215
r 1.74688 1 0 ack 40 ------- 1 1.0 0.0 37 176
+ 1.74688 0 1 tcp 1040 ------- 1 0.0 1.0 57 216
r 1.74688 2 1 ack 40 ------- 2 2.0 1.1 37 177
+ 1.74688 1 2 tcp 1040 ------- 2 1.1 2.0 57 217
- 1.74688 0 1 tcp 1040 ------- 1 0.0 1.0 57 216
- 1.74688 1 2 tcp 1040 ------- 2 1.1 2.0 57 217
r 1.75104 1 0 ack 40 ------- 1 1.0 0.0 38 178
+ 1.75104 0 1 tcp 1040 ------- 1 0.0 1.0 58 218
r 1.75104 2 1 ack 40 ------- 2 2.0 1.1 38 179
+ 1.75104 1 2 tcp 1040 ------- 2 1.1 2.0 58 219
- 1.75104 0 1 tcp 1040 ------- 1 0.0 1.0 58 218
- 1.75104 1 2 tcp 1040 ------- 2 1.1 2.0 58 219
r 1.7552 1 0 ack 40 ------- 1 1.0 0.0 39 180
+ 1.7552 0 1 tcp 1040 ------- 1 0.0 1.0 59 220
r 1.7552 2 1 ack 40 ------- 2 2.0 1.1 39 181
+ 1.7552 1 2 tcp 1040 ------- 2 1.1 2.0 59 221
- 1.7552 0 1 tcp 1040 ------- 1 0.0 1.0 59 220
- 1.7552 1 2 tcp 1040 ------- 2 1.1 2.0 59 221
r 1.75936 1 0 ack 40 ------- 1 1.0 0.0 40 182
+ 1.75936 0 1 tcp 1040 ------- 1 0.0 1.0 60 222
r 1.75936 2 1 ack 40 ------- 2 2.0 1.1 40 183
+ 1.75936 1 2 tcp 1040 ------- 2 1.1 2.0 60 223
- 1.75936 0 1 tcp 1040 ------- 1 0.0 1.0 60 222
- 1.75936 1 2 tcp 1040 ------- 2 1.1 2.0 60 223
r 1.76352 1 0 ack 40 ------- 1 1.0 0.0 41 184
+ 1.76352 0 1 tcp 1040 ------- 1 0.0 1.0 61 224
r 1.76352 2 1 ack 40 ------- 2 2.0 1.1 41 185
+ 1.76352 1 2 tcp 1040 ------- 2 1.1 2.0 61 225
- 1.76352 0 1 tcp 1040 ------- 1 0.0 1.0 61 224
- 1.76352 1 2 tcp 1040 ------- 2 1.1 2.0 61 225
r 1.76768 1 0 ack 40 ------- 1 1.0 0.0 42 186
+ 1.76768 0 1 tcp 1040 ------- 1 0.0 1.0 62 226
r 1.76768 2 1 ack 40 ------- 2 2.0 1.1 42 187
+ 1.76768 1 2 tcp 1040 ------- 2 1.1 2.0 62 227
- 1.76768 0 1 tcp 1040 ------- 1 0.0 1.0 62 226
- 1.76768 1 2 tcp 1040 ------- 2 1.1 2.0 62 227
r 1.77184 1 0 ack 40 ------- 1 1.0 0.0 43 188
+ 1.77184 0 1 tcp 1040 ------- 1 0.0 1.0 63 228
r 1.77184 2 1 ack 40 ------- 2 2.0 1.1 43 189
+ 1.77184 1 2 tcp 1040 ------- 2 1.1 2.0 63 229
- 1.77184 0 1 tcp 1040 ------- 1 0.0 1.0 63 228
- 1.77184 1 2 tcp 1040 ------- 2 1.1 2.0 63 229