V -t * -v 1.0a5 -a 0
A -t * -n 1 -p 0 -o 0x7fffffff -c 30 -a 1
A -t * -h 1 -m 1073741823 -s 0
c -t * -i 1 -n Green
c -t * -i 2 -n Blue
n -t * -a 0 -s 0 -S UP -v circle -c black -i black
n -t * -a 1 -s 1 -S UP -v square -c black -i black
n -t * -a 2 -s 2 -S UP -v hexagon -c black -i black
l -t * -s 0 -d 1 -S UP -r 2000000 -D 0.10000000000000001 -c black -o right
l -t * -s 1 -d 2 -S UP -r 2000000 -D 0.10000000000000001 -c black -o right
n -t 0 -s 0 -S DLABEL -l "client1" -L ""
n -t 0 -s 1 -S DLABEL -l "router1" -L ""
n -t 0 -s 2 -S DLABEL -l "Endserver" -L ""
+ -t 0.5 -s 0 -d 1 -p tcp -e 40 -c 1 -i 0 -a 1 -x {0.0 1.0 0 ------- null}
- -t 0.5 -s 0 -d 1 -p tcp -e 40 -c 1 -i 0 -a 1 -x {0.0 1.0 0 ------- null}
h -t 0.5 -s 0 -d 1 -p tcp -e 40 -c 1 -i 0 -a 1 -x {0.0 1.0 -1 ------- null}
+ -t 0.5 -s 1 -d 2 -p tcp -e 40 -c 2 -i 1 -a 2 -x {1.1 2.0 0 ------- null}
- -t 0.5 -s 1 -d 2 -p tcp -e 40 -c 2 -i 1 -a 2 -x {1.1 2.0 0 ------- null}
h -t 0.5 -s 1 -d 2 -p tcp -e 40 -c 2 -i 1 -a 2 -x {1.1 2.0 -1 ------- null}
r -t 0.60016 -s 0 -d 1 -p tcp -e 40 -c 1 -i 0 -a 1 -x {0.0 1.0 0 ------- null}
+ -t 0.60016 -s 1 -d 0 -p ack -e 40 -c 1 -i 2 -a 1 -x {1.0 0.0 0 ------- null}
- -t 0.60016 -s 1 -d 0 -p ack -e 40 -c 1 -i 2 -a 1 -x {1.0 0.0 0 ------- null}
h -t 0.60016 -s 1 -d 0 -p ack -e 40 -c 1 -i 2 -a 1 -x {1.0 0.0 -1 ------- null}
r -t 0.60016 -s 1 -d 2 -p tcp -e 40 -c 2 -i 1 -a 2 -x {1.1 2.0 0 ------- null}
+ -t 0.60016 -s 2 -d 1 -p ack -e 40 -c 2 -i 3 -a 2 -x {2.0 1.1 0 ------- null}
- -t 0.60016 -s 2 -d 1 -p ack -e 40 -c 2 -i 3 -a 2 -x {2.0 1.1 0 ------- null}
h -t 0.60016 -s 2 -d 1 -p ack -e 40 -c 2 -i 3 -a 2 -x {2.0 1.1 -1 ------- null}
r -t 0.70032 -s 1 -d 0 -p ack -e 40 -c 1 -i 2 -a 1 -x {1.0 0.0 0 ------- null}
+ -t 0.70032 -s 0 -d 1 -p tcp -e 1040 -c 1 -i 4 -a 1 -x {0.0 1.0 1 ------- null}
- -t 0.70032 -s 0 -d 1 -p tcp -e 1040 -c 1 -i 4 -a 1 -x {0.0 1.0 1 ------- null}
h -t 0.70032 -s 0 -d 1 -p tcp -e 1040 -c 1 -i 4 -a 1 -x {0.0 1.0 -1 ------- null}
+ -t 0.70032 -s 0 -d 1 -p tcp -e 1040 -c 1 -i 5 -a 1 -x {0.0 1.0 2 ------- null}
r -t 0.70032 -s 2 -d 1 -p ack -e 40 -c 2 -i 3 -a 2 -x {2.0 1.1 0 ------- null}
+ -t 0.70032 -s 1 -d 2 -p tcp -e 1040 -c 2 -i 6 -a 2 -x {1.1 2.0 1 ------- null}
- -t 0.70032 -s 1 -d 2 -p tcp -e 1040 -c 2 -i 6 -a 2 -x {1.1 2.0 1 ------- null}
h -t 0.70032 -s 1 -d 2 -p tcp -e 1040 -c 2 -i 6 -a 2 -x {1.1 2.0 -1 ------- null}
+ -t 0.70032 -s 1 -d 2 -p tcp -e 1040 -c 2 -i 7 -a 2 -x {1.1 2.0 2 ------- null}
- -t 0.70448 -s 0 -d 1 -p tcp -e 1040 -c 1 -i 5 -a 1 -x {0.0 1.0 2 ------- null}
h -t 0.70448 -s 0 -d 1 -p tcp -e 1040 -c 1 -i 5 -a 1 -x {0.0 1.0 -1 ------- null}
- -t 0.70448 -s 1 -d 2 -p tcp -e 1040 -c 2 -i 7 -a 2 -x {1.1 2.0 2 ------- null}
h -t 0.70448 -s 1 -d 2 -p tcp -e 1040 -c 2 -i 7 -a 2 -x {1.1 2.0 -1 ------- null}
r -t 0.80448 -s 0 -d 1 -p tcp -e 1040 -c 1 -i 4 -a 1 -x {0.0 1.0 1 ------- null}
+ -t 0.80448 -s 1 -d 0 -p ack -e 40 -c 1 -i 8 -a 1 -x {1.0 0.0 1 ------- null}
- -t 0.80448 -s 1 -d 0 -p ack -e 40 -c 1 -i 8 -a 1 -x {1.0 0.0 1 ------- null}
h -t 0.80448 -s 1 -d 0 -p ack -e 40 -c 1 -i 8 -a 1 -x {1.0 0.0 -1 ------- null}
r -t 0.80448 -s 1 -d 2 -p tcp -e 1040 -c 2 -i 6 -a 2 -x {1.1 2.0 1 ------- null}
+ -t 0.80448 -s 2 -d 1 -p ack -e 40 -c 2 -i 9 -a 2 -x {2.0 1.1 1 ------- null}
- -t 0.80448 -s 2 -d 1 -p ack -e 40 -c 2 -i 9 -a 2 -x {2.0 1.1 1 ------- null}
h -t 0.80448 -s 2 -d 1 -p ack -e 40 -c 2 -i 9 -a 2 -x {2.0 1.1 -1 ------- null}
r -t 0.80864 -s 0 -d 1 -p tcp -e 1040 -c 1 -i 5 -a 1 -x {0.0 1.0 2 ------- null}
+ -t 0.80864 -s 1 -d 0 -p ack -e 40 -c 1 -i 10 -a 1 -x {1.0 0.0 2 ------- null}
- -t 0.80864 -s 1 -d 0 -p ack -e 40 -c 1 -i 10 -a 1 -x {1.0 0.0 2 ------- null}
h -t 0.80864 -s 1 -d 0 -p ack -e 40 -c 1 -i 10 -a 1 -x {1.0 0.0 -1 ------- null}
r -t 0.80864 -s 1 -d 2 -p tcp -e 1040 -c 2 -i 7 -a 2 -x {1.1 2.0 2 ------- null}
+ -t 0.80864 -s 2 -d 1 -p ack -e 40 -c 2 -i 11 -a 2 -x {2.0 1.1 2 ------- null}
- -t 0.80864 -s 2 -d 1 -p ack -e 40 -c 2 -i 11 -a 2 -x {2.0 1.1 2 ------- null}
h -t 0.80864 -s 2 -d 1 -p ack -e 40 -c 2 -i 11 -a 2 -x {2.0 1.1 -1 ------- null}
r -t 0.90464 -s 1 -d 0 -p ack -e 40 -c 1 -i 8 -a 1 -x {1.0 0.0 1 ------- null}
+ -t 0.90464 -s 0 -d 1 -p tcp -e 1040 -c 1 -i 12 -a 1 -x {0.0 1.0 3 ------- null}
- -t 0.90464 -s 0 -d 1 -p tcp -e 1040 -c 1 -i 12 -a 1 -x {0.0 1.0 3 ------- null}
h -t 0.90464 -s 0 -d 1 -p tcp -e 1040 -c 1 -i 12 -a 1 -x {0.0 1.0 -1 ------- null}
+ -t 0.90464 -s 0 -d 1 -p tcp -e 1040 -c 1 -i 13 -a 1 -x {0.0 1.0 4 ------- null}
r -t 0.90464 -s 2 -d 1 -p ack -e 40 -c 2 -i 9 -a 2 -x {2.0 1.1 1 ------- null}
+ -t 0.90464 -s 1 -d 2 -p tcp -e 1040 -c 2 -i 14 -a 2 -x {1.1 2.0 3 ------- null}
- -t 0.90464 -s 1 -d 2 -p tcp -e 1040 -c 2 -i 14 -a 2 -x {1.1 2.0 3 ------- null}
h -t 0.90464 -s 1 -d 2 -p tcp -e 1040 -c 2 -i 14 -a 2 -x {1.1 2.0 -1 ------- null}
+ -t 0.90464 -s 1 -d 2 -p tcp -e 1040 -c 2 -i 15 -a 2 -x {1.1 2.0 4 ------- null}
r -t 0.9088 -s 1 -d 0 -p ack -e 40 -c 1 -i 10 -a 1 -x {1.0 0.0 2 ------- null}
+ -t 0.9088 -s 0 -d 1 -p tcp -e 1040 -c 1 -i 16 -a 1 -x {0.0 1.0 5 ------- null}
+ -t 0.9088 -s 0 -d 1 -p tcp -e 1040 -c 1 -i 17 -a 1 -x {0.0 1.0 6 ------- null}
r -t 0.9088 -s 2 -d 1 -p ack -e 40 -c 2 -i 11 -a 2 -x {2.0 1.1 2 ------- null}
+ -t 0.9088 -s 1 -d 2 -p tcp -e 1040 -c 2 -i 18 -a 2 -x {1.1 2.0 5 ------- null}
+ -t 0.9088 -s 1 -d 2 -p tcp -e 1040 -c 2 -i 19 -a 2 -x {1.1 2.0 6 ------- null}
- -t 0.9088 -s 0 -d 1 -p tcp -e 1040 -c 1 -i 13 -a 1 -x {0.0 1.0 4 ------- null}
h -t 0.9088 -s 0 -d 1 -p tcp -e 1040 -c 1 -i 13 -a 1 -x {0.0 1.0 -1 ------- null}
- -t 0.9088 -s 1 -d 2 -p tcp -e 1040 -c 2 -i 15 -a 2 -x {1.1 2.0 4 ------- null}
h -t 0.9088 -s 1 -d 2 -p tcp -e 1040 -c 2 -i 15 -a 2 -x {1.1 2.0 -1 ------- null}
- -t 0.91296 -s 0 -d 1 -p tcp -e 1040 -c 1 -i 16 -a 1 -x {0.0 1.0 5 ------- null}
h -t 0.91296 -s 0 -d 1 -p tcp -e 1040 -c 1 -i 16 -a 1 -x {0.0 1.0 -1 ------- null}
- -t 0.91296 -s 1 -d 2 -p tcp -e 1040 -c 2 -i 18 -a 2 -x {1.1 2.0 5 ------- null}
h -t 0.91296 -s 1 -d 2 -p tcp -e 1040 -c 2 -i 18 -a 2 -x {1.1 2.0 -1 ------- null}
- -t 0.91712 -s 0 -d 1 -p tcp -e 1040 -c 1 -i 17 -a 1 -x {0.0 1.0 6 ------- null}
h -t 0.91712 -s 0 -d 1 -p tcp -e 1040 -c 1 -i 17 -a 1 -x {0.0 1.0 -1 ------- null}
- -t 0.91712 -s 1 -d 2 -p tcp -e 1040 -c 2 -i 19 -a 2 -x {1.1 2.0 6 ------- null}
h -t 0.91712 -s 1 -d 2 -p tcp -e 1040 -c 2 -i 19 -a 2 -x {1.1 2.0 -1 ------- null}
r -t 1.0088 -s 0 -d 1 -p tcp -e 1040 -c 1 -i 12 -a 1 -x {0.0 1.0 3 ------- null}
+ -t 1.0088 -s 1 -d 0 -p ack -e 40 -c 1 -i 20 -a 1 -x {1.0 0.0 3 ------- null}
- -t 1.0088 -s 1 -d 0 -p ack -e 40 -c 1 -i 20 -a 1 -x {1.0 0.0 3 ------- null}
h -t 1.0088 -s 1 -d 0 -p ack -e 40 -c 1 -i 20 -a 1 -x {1.0 0.0 -1 ------- null}
r -t 1.0088 -s 1 -d 2 -p tcp -e 1040 -c 2 -i 14 -a 2 -x {1.1 2.0 3 ------- null}
+ -t 1.0088 -s 2 -d 1 -p ack -e 40 -c 2 -i 21 -a 2 -x {2.0 1.1 3 ------- null}
- -t 1.0088 -s 2 -d 1 -p ack -e 40 -c 2 -i 21 -a 2 -x {2.0 1.1 3 ------- null}
h -t 1.0088 -s 2 -d 1 -p ack -e 40 -c 2 -i 21 -a 2 -x {2.0 1.1 -1 ------- null}
r -t 1.01296 -s 0 -d 1 -p tcp -e 1040 -c 1 -i 13 -a 1 -x {0.0 1.0 4 ------- null}
+ -t 1.01296 -s 1 -d 0 -p ack -e 40 -c 1 -i 22 -a 1 -x {1.0 0.0 4 ------- null}
- -t 1.01296 -s 1 -d 0 -p ack -e 40 -c 1 -i 22 -a 1 -x {1.0 0.0 4 ------- null}
h -t 1.01296 -s 1 -d 0 -p ack -e 40 -c 1 -i 22 -a 1 -x {1.0 0.0 -1 ------- null}
r -t 1.01296 -s 1 -d 2 -p tcp -e 1040 -c 2 -i 15 -a 2 -x {1.1 2.0 4 ------- null}
+ -t 1.01296 -s 2 -d 1 -p ack -e 40 -c 2 -i 23 -a 2 -x {2.0 1.1 4 ------- null}
- -t 1.01296 -s 2 -d 1 -p ack -e 40 -c 2 -i 23 -a 2 -x {2.0 1.1 4 ------- null}
h -t 1.01296 -s 2 -d 1 -p ack -e 40 -c 2 -i 23 -a 2 -x {2.0 1.1 -1 ------- null}
r -t 1.01712 -s 0 -d 1 -p tcp -e 1040 -c 1 -i 16 -a 1 -x {0.0 1.0 5 ------- null}
+ -t 1.01712 -s 1 -d 0 -p ack -e 40 -c 1 -i 24 -a 1 -x {1.0 0.0 5 ------- null}
- -t 1.01712 -s 1 -d 0 -p ack -e 40 -c 1 -i 24 -a 1 -x {1.0 0.0 5 ------- null}
h -t 1.01712 -s 1 -d 0 -p ack -e 40 -c 1 -i 24 -a 1 -x {1.0 0.0 -1 ------- null}
r -t 1.01712 -s 1 -d 2 -p tcp -e 1040 -c 2 -i 18 -a 2 -x {1.1 2.0 5 ------- null}
+ -t 1.01712 -s 2 -d 1 -p ack -e 40 -c 2 -i 25 -a 2 -x {2.0 1.1 5 ------- null}
- -t 1.01712 -s 2 -d 1 -p ack -e 40 -c 2 -i 25 -a 2 -x {2.0 1.1 5 ------- null}
h -t 1.01712 -s 2 -d 1 -p ack -e 40 -c 2 -i 25 -a 2 -x {2.0 1.1 -1 ------- null}
r -t 1.02128 -s 0 -d 1 -p tcp -e 1040 -c 1 -i 17 -a 1 -x {0.0 1.0 6 ------- null}
+ -t 1.02128 -s 1 -d 0 -p ack -e 40 -c 1 -i 26 -a 1 -x {1.0 0.0 6 ------- null}
- -t 1.02128 -s 1 -d 0 -p ack -e 40 -c 1 -i 26 -a 1 -x {1.0 0.0 6 ------- null}
h -t 1.02128 -s 1 -d 0 -p ack -e 40 -c 1 -i 26 -a 1 -x {1.0 0.0 -1 ------- null}
r -t 1.02128 -s 1 -d 2 -p tcp -e 1040 -c 2 -i 19 -a 2 -x {1.1 2.0 6 ------- null}
+ -t 1.02128 -s 2 -d 1 -p ack -e 40 -c 2 -i 27 -a 2 -x {2.0 1.1 6 ------- null}
- -t 1.02128 -s 2 -d 1 -p ack -e 40 -c 2 -i 27 -a 2 -x {2.0 1.1 6 ------- null}
h -t 1.02128 -s 2 -d 1 -p ack -e 40 -c 2 -i 27 -a 2 -x {2.0 1.1 -1 ------- null}
r -t 1.10896 -s 1 -d 0 -p ack -e 40 -c 1 -i 20 -a 1 -x {1.0 0.0 3 ------- null}
+ -t 1.10896 -s 0 -d 1 -p tcp -e 1040 -c 1 -i 28 -a 1 -x {0.0 1.0 7 ------- null}
- -t 1.10896 -s 0 -d 1 -p tcp -e 1040 -c 1 -i 28 -a 1 -x {0.0 1.0 7 ------- null}
h -t 1.10896 -s 0 -d 1 -p tcp -e 1040 -c 1 -i 28 -a 1 -x {0.0 1.0 -1 ------- null}
+ -t 1.10896 -s 0 -d 1 -p tcp -e 1040 -c 1 -i 29 -a 1 -x {0.0 1.0 8 ------- null}
r -t 1.10896 -s 2 -d 1 -p ack -e 40 -c 2 -i 21 -a 2 -x {2.0 1.1 3 ------- null}
+ -t 1.10896 -s 1 -d 2 -p tcp -e 1040 -c 2 -i 30 -a 2 -x {1.1 2.0 7 ------- null}
- -t 1.10896 -s 1 -d 2 -p tcp -e 1040 -c 2 -i 30 -a 2 -x {1.1 2.0 7 ------- null}
h -t 1.10896 -s 1 -d 2 -p tcp -e 1040 -c 2 -i 30 -a 2 -x {1.1 2.0 -1 ------- null}
+ -t 1.10896 -s 1 -d 2 -p tcp -e 1040 -c 2 -i 31 -a 2 -x {1.1 2.0 8 ------- null}
r -t 1.11312 -s 1 -d 0 -p ack -e 40 -c 1 -i 22 -a 1 -x {1.0 0.0 4 ------- null}
+ -t 1.11312 -s 0 -d 1 -p tcp -e 1040 -c 1 -i 32 -a 1 -x {0.0 1.0 9 ------- null}
+ -t 1.11312 -s 0 -d 1 -p tcp -e 1040 -c 1 -i 33 -a 1 -x {0.0 1.0 10 ------- null}
r -t 1.11312 -s 2 -d 1 -p ack -e 40 -c 2 -i 23 -a 2 -x {2.0 1.1 4 ------- null}
+ -t 1.11312 -s 1 -d 2 -p tcp -e 1040 -c 2 -i 34 -a 2 -x {1.1 2.0 9 ------- null}
+ -t 1.11312 -s 1 -d 2 -p tcp -e 1040 -c 2 -i 35 -a 2 -x {1.1 2.0 10 ------- null}
- -t 1.11312 -s 0 -d 1 -p tcp -e 1040 -c 1 -i 29 -a 1 -x {0.0 1.0 8 ------- null}
h -t 1.11312 -s 0 -d 1 -p tcp -e 1040 -c 1 -i 29 -a 1 -x {0.0 1.0 -1 ------- null}
- -t 1.11312 -s 1 -d 2 -p tcp -e 1040 -c 2 -i 31 -a 2 -x {1.1 2.0 8 ------- null}
h -t 1.11312 -s 1 -d 2 -p tcp -e 1040 -c 2 -i 31 -a 2 -x {1.1 2.0 -1 ------- null}
- -t 1.11728 -s 0 -d 1 -p tcp -e 1040 -c 1 -i 32 -a 1 -x {0.0 1.0 9 ------- null}
h -t 1.11728 -s 0 -d 1 -p tcp -e 1040 -c 1 -i 32 -a 1 -x {0.0 1.0 -1 ------- null}
- -t 1.11728 -s 1 -d 2 -p tcp -e 1040 -c 2 -i 34 -a 2 -x {1.1 2.0 9 ------- null}
h -t 1.11728 -s 1 -d 2 -p tcp -e 1040 -c 2 -i 34 -a 2 -x {1.1 2.0 -1 ------- null}
r -t 1.11728 -s 1 -d 0 -p ack -e 40 -c 1 -i 24 -a 1 -x {1.0 0.0 5 ------- null}
+ -t 1.11728 -s 0 -d 1 -p tcp -e 1040 -c 1 -i 36 -a 1 -x {0.0 1.0 11 ------- null}
+ -t 1.11728 -s 0 -d 1 -p tcp -e 1040 -c 1 -i 37 -a 1 -x {0.0 1.0 12 ------- null}
r -t 1.11728 -s 2 -d 1 -p ack -e 40 -c 2 -i 25 -a 2 -x {2.0 1.1 5 ------- null}
+ -t 1.11728 -s 1 -d 2 -p tcp -e 1040 -c 2 -i 38 -a 2 -x {1.1 2.0 11 ------- null}
+ -t 1.11728 -s 1 -d 2 -p tcp -e 1040 -c 2 -i 39 -a 2 -x {1.1 2.0 12 ------- null}
- -t 1.12144 -s 0 -d 1 -p tcp -e 1040 -c 1 -i 33 -a 1 -x {0.0 1.0 10 ------- null}
h -t 1.12144 -s 0 -d 1 -p tcp -e 1040 -c 1 -i 33 -a 1 -x {0.0 1.0 -1 ------- null}
- -t 1.12144 -s 1 -d 2 -p tcp -e 1040 -c 2 -i 35 -a 2 -x {1.1 2.0 10 ------- null}
h -t 1.12144 -s 1 -d 2 -p tcp -e 1040 -c 2 -i 35 -a 2 -x {1.1 2.0 -1 ------- null}
r -t 1.12144 -s 1 -d 0 -p ack -e 40 -c 1 -i 26 -a 1 -x {1.0 0.0 6 ------- null}
+ -t 1.12144 -s 0 -d 1 -p tcp -e 1040 -c 1 -i 40 -a 1 -x {0.0 1.0 13 ------- null}
+ -t 1.12144 -s 0 -d 1 -p tcp -e 1040 -c 1 -i 41 -a 1 -x {0.0 1.0 14 ------- null}
r -t 1.12144 -s 2 -d 1 -p ack -e 40 -c 2 -i 27 -a 2 -x {2.0 1.1 6 ------- null}
+ -t 1.12144 -s 1 -d 2 -p tcp -e 1040 -c 2 -i 42 -a 2 -x {1.1 2.0 13 ------- null}
+ -t 1.12144 -s 1 -d 2 -p tcp -e 1040 -c 2 -i 43 -a 2 -x {1.1 2.0 14 ------- null}
- -t 1.1256 -s 0 -d 1 -p tcp -e 1040 -c 1 -i 36 -a 1 -x {0.0 1.0 11 ------- null}
h -t 1.1256 -s 0 -d 1 -p tcp -e 1040 -c 1 -i 36 -a 1 -x {0.0 1.0 -1 ------- null}
- -t 1.1256 -s 1 -d 2 -p tcp -e 1040 -c 2 -i 38 -a 2 -x {1.1 2.0 11 ------- null}
h -t 1.1256 -s 1 -d 2 -p tcp -e 1040 -c 2 -i 38 -a 2 -x {1.1 2.0 -1 ------- null}
- -t 1.12976 -s 0 -d 1 -p tcp -e 1040 -c 1 -i 37 -a 1 -x {0.0 1.0 12 ------- null}
h -t 1.12976 -s 0 -d 1 -p tcp -e 1040 -c 1 -i 37 -a 1 -x {0.0 1.0 -1 ------- null}
- -t 1.12976 -s 1 -d 2 -p tcp -e 1040 -c 2 -i 39 -a 2 -x {1.1 2.0 12 ------- null}
h -t 1.12976 -s 1 -d 2 -p tcp -e 1040 -c 2 -i 39 -a 2 -x {1.1 2.0 -1 ------- null}
- -t 1.13392 -s 0 -d 1 -p tcp -e 1040 -c 1 -i 40 -a 1 -x {0.0 1.0 13 ------- null}
h -t 1.13392 -s 0 -d 1 -p tcp -e 1040 -c 1 -i 40 -a 1 -x {0.0 1.0 -1 ------- null}
- -t 1.13392 -s 1 -d 2 -p tcp -e 1040 -c 2 -i 42 -a 2 -x {1.1 2.0 13 ------- null}
h -t 1.13392 -s 1 -d 2 -p tcp -e 1040 -c 2 -i 42 -a 2 -x {1.1 2.0 -1 ------- null}
- -t 1.13808 -s 0 -d 1 -p tcp -e 1040 -c 1 -i 41 -a 1 -x {0.0 1.0 14 ------- null}
h -t 1.13808 -s 0 -d 1 -p tcp -e 1040 -c 1 -i 41 -a 1 -x {0.0 1.0 -1 ------- null}
- -t 1.13808 -s 1 -d 2 -p tcp -e 1040 -c 2 -i 43 -a 2 -x {1.1 2.0 14 ------- null}
h -t 1.13808 -s 1 -d 2 -p tcp -e 1040 -c 2 -i 43 -a 2 -x {1.1 2.0 -1 ------- null}
r -t 1.21312 -s 0 -d 1 -p tcp -e 1040 -c 1 -i 28 -a 1 -x {0.0 1.0 7 ------- null}
+ -t 1.21312 -s 1 -d 0 -p ack -e 40 -c 1 -i 44 -a 1 -x {1.0 0.0 7 ------- null}
- -t 1.21312 -s 1 -d 0 -p ack -e 40 -c 1 -i 44 -a 1 -x {1.0 0.0 7 ------- null}
h -t 1.21312 -s 1 -d 0 -p ack -e 40 -c 1 -i 44 -a 1 -x {1.0 0.0 -1 ------- null}
r -t 1.21312 -s 1 -d 2 -p tcp -e 1040 -c 2 -i 30 -a 2 -x {1.1 2.0 7 ------- null}
+ -t 1.21312 -s 2 -d 1 -p ack -e 40 -c 2 -i 45 -a 2 -x {2.0 1.1 7 ------- null}
- -t 1.21312 -s 2 -d 1 -p ack -e 40 -c 2 -i 45 -a 2 -x {2.0 1.1 7 ------- null}
h -t 1.21312 -s 2 -d 1 -p ack -e 40 -c 2 -i 45 -a 2 -x {2.0 1.1 -1 ------- null}
r -t 1.21728 -s 0 -d 1 -p tcp -e 1040 -c 1 -i 29 -a 1 -x {0.0 1.0 8 ------- null}
+ -t 1.21728 -s 1 -d 0 -p ack -e 40 -c 1 -i 46 -a 1 -x {1.0 0.0 8 ------- null}
- -t 1.21728 -s 1 -d 0 -p ack -e 40 -c 1 -i 46 -a 1 -x {1.0 0.0 8 ------- null}
h -t 1.21728 -s 1 -d 0 -p ack -e 40 -c 1 -i 46 -a 1 -x {1.0 0.0 -1 ------- null}
r -t 1.21728 -s 1 -d 2 -p tcp -e 1040 -c 2 -i 31 -a 2 -x {1.1 2.0 8 ------- null}
+ -t 1.21728 -s 2 -d 1 -p ack -e 40 -c 2 -i 47 -a 2 -x {2.0 1.1 8 ------- null}
- -t 1.21728 -s 2 -d 1 -p ack -e 40 -c 2 -i 47 -a 2 -x {2.0 1.1 8 ------- null}
h -t 1.21728 -s 2 -d 1 -p ack -e 40 -c 2 -i 47 -a 2 -x {2.0 1.1 -1 ------- null}
r -t 1.22144 -s 0 -d 1 -p tcp -e 1040 -c 1 -i 32 -a 1 -x {0.0 1.0 9 ------- null}
+ -t 1.22144 -s 1 -d 0 -p ack -e 40 -c 1 -i 48 -a 1 -x {1.0 0.0 9 ------- null}
- -t 1.22144 -s 1 -d 0 -p ack -e 40 -c 1 -i 48 -a 1 -x {1.0 0.0 9 ------- null}
h -t 1.22144 -s 1 -d 0 -p ack -e 40 -c 1 -i 48 -a 1 -x {1.0 0.0 -1 ------- null}
r -t 1.22144 -s 1 -d 2 -p tcp -e 1040 -c 2 -i 34 -a 2 -x {1.1 2.0 9 ------- null}
+ -t 1.22144 -s 2 -d 1 -p ack -e 40 -c 2 -i 49 -a 2 -x {2.0 1.1 9 ------- null}
- -t 1.22144 -s 2 -d 1 -p ack -e 40 -c 2 -i 49 -a 2 -x {2.0 1.1 9 ------- null}
h -t 1.22144 -s 2 -d 1 -p ack -e 40 -c 2 -i 49 -a 2 -x {2.0 1.1 -1 ------- null}
r -t 1.2256 -s 0 -d 1 -p tcp -e 1040 -c 1 -i 33 -a 1 -x {0.0 1.0 10 ------- null}
+ -t 1.2256 -s 1 -d 0 -p ack -e 40 -c 1 -i 50 -a 1 -x {1.0 0.0 10 ------- null}
- -t 1.2256 -s 1 -d 0 -p ack -e 40 -c 1 -i 50 -a 1 -x {1.0 0.0 10 ------- null}
h -t 1.2256 -s 1 -d 0 -p ack -e 40 -c 1 -i 50 -a 1 -x {1.0 0.0 -1 ------- null}
r -t 1.2256 -s 1 -d 2 -p tcp -e 1040 -c 2 -i 35 -a 2 -x {1.1 2.0 10 ------- null}
+ -t 1.2256 -s 2 -d 1 -p ack -e 40 -c 2 -i 51 -a 2 -x {2.0 1.1 10 ------- null}
- -t 1.2256 -s 2 -d 1 -p ack -e 40 -c 2 -i 51 -a 2 -x {2.0 1.1 10 ------- null}
h -t 1.2256 -s 2 -d 1 -p ack -e 40 -c 2 -i 51 -a 2 -x {2.0 1.1 -1 ------- null}
r -t 1.22976 -s 0 -d 1 -p tcp -e 1040 -c 1 -i 36 -a 1 -x {0.0 1.0 11 ------- null}
+ -t 1.22976 -s 1 -d 0 -p ack -e 40 -c 1 -i 52 -a 1 -x {1.0 0.0 11 ------- null}
- -t 1.22976 -s 1 -d 0 -p ack -e 40 -c 1 -i 52 -a 1 -x {1.0 0.0 11 ------- null}
h -t 1.22976 -s 1 -d 0 -p ack -e 40 -c 1 -i 52 -a 1 -x {1.0 0.0 -1 ------- null}
r -t 1.22976 -s 1 -d 2 -p tcp -e 1040 -c 2 -i 38 -a 2 -x {1.1 2.0 11 ------- null}
+ -t 1.22976 -s 2 -d 1 -p ack -e 40 -c 2 -i 53 -a 2 -x {2.0 1.1 11 ------- null}
- -t 1.22976 -s 2 -d 1 -p ack -e 40 -c 2 -i 53 -a 2 -x {2.0 1.1 11 ------- null}
h -t 1.22976 -s 2 -d 1 -p ack -e 40 -c 2 -i 53 -a 2 -x {2.0 1.1 -1 ------- null}
r -t 1.23392 -s 0 -d 1 -p tcp -e 1040 -c 1 -i 37 -a 1 -x {0.0 1.0 12 ------- null}
+ -t 1.23392 -s 1 -d 0 -p ack -e 40 -c 1 -i 54 -a 1 -x {1.0 0.0 12 ------- null}
- -t 1.23392 -s 1 -d 0 -p ack -e 40 -c 1 -i 54 -a 1 -x {1.0 0.0 12 ------- null}
h -t 1.23392 -s 1 -d 0 -p ack -e 40 -c 1 -i 54 -a 1 -x {1.0 0.0 -1 ------- null}
r -t 1.23392 -s 1 -d 2 -p tcp -e 1040 -c 2 -i 39 -a 2 -x {1.1 2.0 12 ------- null}
+ -t 1.23392 -s 2 -d 1 -p ack -e 40 -c 2 -i 55 -a 2 -x {2.0 1.1 12 ------- null}
- -t 1.23392 -s 2 -d 1 -p ack -e 40 -c 2 -i 55 -a 2 -x {2.0 1.1 12 ------- null}
h -t 1.23392 -s 2 -d 1 -p ack -e 40 -c 2 -i 55 -a 2 -x {2.0 1.1 -1 ------- null}
r -t 1.23808 -s 0 -d 1 -p tcp -e 1040 -c 1 -i 40 -a 1 -x {0.0 1.0 13 ------- null}
+ -t 1.23808 -s 1 -d 0 -p ack -e 40 -c 1 -i 56 -a 1 -x {1.0 0.0 13 ------- null}
- -t 1.23808 -s 1 -d 0 -p ack -e 40 -c 1 -i 56 -a 1 -x {1.0 0.0 13 ------- null}
h -t 1.23808 -s 1 -d 0 -p ack -e 40 -c 1 -i 56 -a 1 -x {1.0 0.0 -1 ------- null}
r -t 1.23808 -s 1 -d 2 -p tcp -e 1040 -c 2 -i 42 -a 2 -x {1.1 2.0 13 ------- null}
+ -t 1.23808 -s 2 -d 1 -p ack -e 40 -c 2 -i 57 -a 2 -x {2.0 1.1 13 ------- null}
- -t 1.23808 -s 2 -d 1 -p ack -e 40 -c 2 -i 57 -a 2 -x {2.0 1.1 13 ------- null}
h -t 1.23808 -s 2 -d 1 -p ack -e 40 -c 2 -i 57 -a 2 -x {2.0 1.1 -1 ------- null}
r -t 1.24224 -s 0 -d 1 -p tcp -e 1040 -c 1 -i 41 -a 1 -x {0.0 1.0 14 ------- null}
+ -t 1.24224 -s 1 -d 0 -p ack -e 40 -c 1 -i 58 -a 1 -x {1.0 0.0 14 ------- null}
- -t 1.24224 -s 1 -d 0 -p ack -e 40 -c 1 -i 58 -a 1 -x {1.0 0.0 14 ------- null}
h -t 1.24224 -s 1 -d 0 -p ack -e 40 -c 1 -i 58 -a 1 -x {1.0 0.0 -1 ------- null}
r -t 1.24224 -s 1 -d 2 -p tcp -e 1040 -c 2 -i 43 -a 2 -x {1.1 2.0 14 ------- null}
+ -t 1.24224 -s 2 -d 1 -p ack -e 40 -c 2 -i 59 -a 2 -x {2.0 1.1 14 ------- null}
- -t 1.24224 -s 2 -d 1 -p ack -e 40 -c 2 -i 59 -a 2 -x {2.0 1.1 14 ------- null}
h -t 1.24224 -s 2 -d 1 -p ack -e 40 -c 2 -i 59 -a 2 -x {2.0 1.1 -1 ------- null}
r -t 1.31328 -s 1 -d 0 -p ack -e 40 -c 1 -i 44 -a 1 -x {1.0 0.0 7 ------- null}
+ -t 1.31328 -s 0 -d 1 -p tcp -e 1040 -c 1 -i 60 -a 1 -x {0.0 1.0 15 ------- null}
- -t 1.31328 -s 0 -d 1 -p tcp -e 1040 -c 1 -i 60 -a 1 -x {0.0 1.0 15 ------- null}
h -t 1.31328 -s 0 -d 1 -p tcp -e 1040 -c 1 -i 60 -a 1 -x {0.0 1.0 -1 ------- null}
+ -t 1.31328 -s 0 -d 1 -p tcp -e 1040 -c 1 -i 61 -a 1 -x {0.0 1.0 16 ------- null}
r -t 1.31328 -s 2 -d 1 -p ack -e 40 -c 2 -i 45 -a 2 -x {2.0 1.1 7 ------- null}
+ -t 1.31328 -s 1 -d 2 -p tcp -e 1040 -c 2 -i 62 -a 2 -x {1.1 2.0 15 ------- null}
- -t 1.31328 -s 1 -d 2 -p tcp -e 1040 -c 2 -i 62 -a 2 -x {1.1 2.0 15 ------- null}
h -t 1.31328 -s 1 -d 2 -p tcp -e 1040 -c 2 -i 62 -a 2 -x {1.1 2.0 -1 ------- null}
+ -t 1.31328 -s 1 -d 2 -p tcp -e 1040 -c 2 -i 63 -a 2 -x {1.1 2.0 16 ------- null}
r -t 1.31744 -s 1 -d 0 -p ack -e 40 -c 1 -i 46 -a 1 -x {1.0 0.0 8 ------- null}
+ -t 1.31744 -s 0 -d 1 -p tcp -e 1040 -c 1 -i 64 -a 1 -x {0.0 1.0 17 ------- null}
+ -t 1.31744 -s 0 -d 1 -p tcp -e 1040 -c 1 -i 65 -a 1 -x {0.0 1.0 18 ------- null}
r -t 1.31744 -s 2 -d 1 -p ack -e 40 -c 2 -i 47 -a 2 -x {2.0 1.1 8 ------- null}
+ -t 1.31744 -s 1 -d 2 -p tcp -e 1040 -c 2 -i 66 -a 2 -x {1.1 2.0 17 ------- null}
+ -t 1.31744 -s 1 -d 2 -p tcp -e 1040 -c 2 -i 67 -a 2 -x {1.1 2.0 18 ------- null}
- -t 1.31744 -s 0 -d 1 -p tcp -e 1040 -c 1 -i 61 -a 1 -x {0.0 1.0 16 ------- null}
h -t 1.31744 -s 0 -d 1 -p tcp -e 1040 -c 1 -i 61 -a 1 -x {0.0 1.0 -1 ------- null}
- -t 1.31744 -s 1 -d 2 -p tcp -e 1040 -c 2 -i 63 -a 2 -x {1.1 2.0 16 ------- null}
h -t 1.31744 -s 1 -d 2 -p tcp -e 1040 -c 2 -i 63 -a 2 -x {1.1 2.0 -1 ------- null}
r -t 1.3216 -s 1 -d 0 -p ack -e 40 -c 1 -i 48 -a 1 -x {1.0 0.0 9 ------- null}
+ -t 1.3216 -s 0 -d 1 -p tcp -e 1040 -c 1 -i 68 -a 1 -x {0.0 1.0 19 ------- null}
+ -t 1.3216 -s 0 -d 1 -p tcp -e 1040 -c 1 -i 69 -a 1 -x {0.0 1.0 20 ------- null}
r -t 1.3216 -s 2 -d 1 -p ack -e 40 -c 2 -i 49 -a 2 -x {2.0 1.1 9 ------- null}
+ -t 1.3216 -s 1 -d 2 -p tcp -e 1040 -c 2 -i 70 -a 2 -x {1.1 2.0 19 ------- null}
+ -t 1.3216 -s 1 -d 2 -p tcp -e 1040 -c 2 -i 71 -a 2 -x {1.1 2.0 20 ------- null}
- -t 1.3216 -s 0 -d 1 -p tcp -e 1040 -c 1 -i 64 -a 1 -x {0.0 1.0 17 ------- null}
h -t 1.3216 -s 0 -d 1 -p tcp -e 1040 -c 1 -i 64 -a 1 -x {0.0 1.0 -1 ------- null}
- -t 1.3216 -s 1 -d 2 -p tcp -e 1040 -c 2 -i 66 -a 2 -x {1.1 2.0 17 ------- null}
h -t 1.3216 -s 1 -d 2 -p tcp -e 1040 -c 2 -i 66 -a 2 -x {1.1 2.0 -1 ------- null}
r -t 1.32576 -s 1 -d 0 -p ack -e 40 -c 1 -i 50 -a 1 -x {1.0 0.0 10 ------- null}
+ -t 1.32576 -s 0 -d 1 -p tcp -e 1040 -c 1 -i 72 -a 1 -x {0.0 1.0 21 ------- null}
+ -t 1.32576 -s 0 -d 1 -p tcp -e 1040 -c 1 -i 73 -a 1 -x {0.0 1.0 22 ------- null}
r -t 1.32576 -s 2 -d 1 -p ack -e 40 -c 2 -i 51 -a 2 -x {2.0 1.1 10 ------- null}
+ -t 1.32576 -s 1 -d 2 -p tcp -e 1040 -c 2 -i 74 -a 2 -x {1.1 2.0 21 ------- null}
+ -t 1.32576 -s 1 -d 2 -p tcp -e 1040 -c 2 -i 75 -a 2 -x {1.1 2.0 22 ------- null}
- -t 1.32576 -s 0 -d 1 -p tcp -e 1040 -c 1 -i 65 -a 1 -x {0.0 1.0 18 ------- null}
h -t 1.32576 -s 0 -d 1 -p tcp -e 1040 -c 1 -i 65 -a 1 -x {0.0 1.0 -1 ------- null}
- -t 1.32576 -s 1 -d 2 -p tcp -e 1040 -c 2 -i 67 -a 2 -x {1.1 2.0 18 ------- null}
h -t 1.32576 -s 1 -d 2 -p tcp -e 1040 -c 2 -i 67 -a 2 -x {1.1 2.0 -1 ------- null}
r -t 1.32992 -s 1 -d 0 -p ack -e 40 -c 1 -i 52 -a 1 -x {1.0 0.0 11 ------- null}
+ -t 1.32992 -s 0 -d 1 -p tcp -e 1040 -c 1 -i 76 -a 1 -x {0.0 1.0 23 ------- null}
+ -t 1.32992 -s 0 -d 1 -p tcp -e 1040 -c 1 -i 77 -a 1 -x {0.0 1.0 24 ------- null}
r -t 1.32992 -s 2 -d 1 -p ack -e 40 -c 2 -i 53 -a 2 -x {2.0 1.1 11 ------- null}
+ -t 1.32992 -s 1 -d 2 -p tcp -e 1040 -c 2 -i 78 -a 2 -x {1.1 2.0 23 ------- null}
+ -t 1.32992 -s 1 -d 2 -p tcp -e 1040 -c 2 -i 79 -a 2 -x {1.1 2.0 24 ------- null}
- -t 1.32992 -s 0 -d 1 -p tcp -e 1040 -c 1 -i 68 -a 1 -x {0.0 1.0 19 ------- null}
h -t 1.32992 -s 0 -d 1 -p tcp -e 1040 -c 1 -i 68 -a 1 -x {0.0 1.0 -1 ------- null}
- -t 1.32992 -s 1 -d 2 -p tcp -e 1040 -c 2 -i 70 -a 2 -x {1.1 2.0 19 ------- null}
h -t 1.32992 -s 1 -d 2 -p tcp -e 1040 -c 2 -i 70 -a 2 -x {1.1 2.0 -1 ------- null}
r -t 1.33408 -s 1 -d 0 -p ack -e 40 -c 1 -i 54 -a 1 -x {1.0 0.0 12 ------- null}
+ -t 1.33408 -s 0 -d 1 -p tcp -e 1040 -c 1 -i 80 -a 1 -x {0.0 1.0 25 ------- null}
+ -t 1.33408 -s 0 -d 1 -p tcp -e 1040 -c 1 -i 81 -a 1 -x {0.0 1.0 26 ------- null}
r -t 1.33408 -s 2 -d 1 -p ack -e 40 -c 2 -i 55 -a 2 -x {2.0 1.1 12 ------- null}
+ -t 1.33408 -s 1 -d 2 -p tcp -e 1040 -c 2 -i 82 -a 2 -x {1.1 2.0 25 ------- null}
+ -t 1.33408 -s 1 -d 2 -p tcp -e 1040 -c 2 -i 83 -a 2 -x {1.1 2.0 26 ------- null}
- -t 1.33408 -s 0 -d 1 -p tcp -e 1040 -c 1 -i 69 -a 1 -x {0.0 1.0 20 ------- null}
h -t 1.33408 -s 0 -d 1 -p tcp -e 1040 -c 1 -i 69 -a 1 -x {0.0 1.0 -1 ------- null}
- -t 1.33408 -s 1 -d 2 -p tcp -e 1040 -c 2 -i 71 -a 2 -x {1.1 2.0 20 ------- null}
h -t 1.33408 -s 1 -d 2 -p tcp -e 1040 -c 2 -i 71 -a 2 -x {1.1 2.0 -1 ------- null}
r -t 1.33824 -s 1 -d 0 -p ack -e 40 -c 1 -i 56 -a 1 -x {1.0 0.0 13 ------- null}
+ -t 1.33824 -s 0 -d 1 -p tcp -e 1040 -c 1 -i 84 -a 1 -x {0.0 1.0 27 ------- null}
+ -t 1.33824 -s 0 -d 1 -p tcp -e 1040 -c 1 -i 85 -a 1 -x {0.0 1.0 28 ------- null}
r -t 1.33824 -s 2 -d 1 -p ack -e 40 -c 2 -i 57 -a 2 -x {2.0 1.1 13 ------- null}
+ -t 1.33824 -s 1 -d 2 -p tcp -e 1040 -c 2 -i 86 -a 2 -x {1.1 2.0 27 ------- null}
+ -t 1.33824 -s 1 -d 2 -p tcp -e 1040 -c 2 -i 87 -a 2 -x {1.1 2.0 28 ------- null}
- -t 1.33824 -s 0 -d 1 -p tcp -e 1040 -c 1 -i 72 -a 1 -x {0.0 1.0 21 ------- null}
h -t 1.33824 -s 0 -d 1 -p tcp -e 1040 -c 1 -i 72 -a 1 -x {0.0 1.0 -1 ------- null}
- -t 1.33824 -s 1 -d 2 -p tcp -e 1040 -c 2 -i 74 -a 2 -x {1.1 2.0 21 ------- null}
h -t 1.33824 -s 1 -d 2 -p tcp -e 1040 -c 2 -i 74 -a 2 -x {1.1 2.0 -1 ------- null}
r -t 1.3424 -s 1 -d 0 -p ack -e 40 -c 1 -i 58 -a 1 -x {1.0 0.0 14 ------- null}
+ -t 1.3424 -s 0 -d 1 -p tcp -e 1040 -c 1 -i 88 -a 1 -x {0.0 1.0 29 ------- null}
+ -t 1.3424 -s 0 -d 1 -p tcp -e 1040 -c 1 -i 89 -a 1 -x {0.0 1.0 30 ------- null}
r -t 1.3424 -s 2 -d 1 -p ack -e 40 -c 2 -i 59 -a 2 -x {2.0 1.1 14 ------- null}
+ -t 1.3424 -s 1 -d 2 -p tcp -e 1040 -c 2 -i 90 -a 2 -x {1.1 2.0 29 ------- null}
+ -t 1.3424 -s 1 -d 2 -p tcp -e 1040 -c 2 -i 91 -a 2 -x {1.1 2.0 30 ------- null}
- -t 1.3424 -s 0 -d 1 -p tcp -e 1040 -c 1 -i 73 -a 1 -x {0.0 1.0 22 ------- null}
h -t 1.3424 -s 0 -d 1 -p tcp -e 1040 -c 1 -i 73 -a 1 -x {0.0 1.0 -1 ------- null}
- -t 1.3424 -s 1 -d 2 -p tcp -e 1040 -c 2 -i 75 -a 2 -x {1.1 2.0 22 ------- null}
h -t 1.3424 -s 1 -d 2 -p tcp -e 1040 -c 2 -i 75 -a 2 -x {1.1 2.0 -1 ------- null}
- -t 1.34656 -s 0 -d 1 -p tcp -e 1040 -c 1 -i 76 -a 1 -x {0.0 1.0 23 ------- null}
h -t 1.34656 -s 0 -d 1 -p tcp -e 1040 -c 1 -i 76 -a 1 -x {0.0 1.0 -1 ------- null}
- -t 1.34656 -s 1 -d 2 -p tcp -e 1040 -c 2 -i 78 -a 2 -x {1.1 2.0 23 ------- null}
h -t 1.34656 -s 1 -d 2 -p tcp -e 1040 -c 2 -i 78 -a 2 -x {1.1 2.0 -1 ------- null}
- -t 1.35072 -s 0 -d 1 -p tcp -e 1040 -c 1 -i 77 -a 1 -x {0.0 1.0 24 ------- null}
h -t 1.35072 -s 0 -d 1 -p tcp -e 1040 -c 1 -i 77 -a 1 -x {0.0 1.0 -1 ------- null}
- -t 1.35072 -s 1 -d 2 -p tcp -e 1040 -c 2 -i 79 -a 2 -x {1.1 2.0 24 ------- null}
h -t 1.35072 -s 1 -d 2 -p tcp -e 1040 -c 2 -i 79 -a 2 -x {1.1 2.0 -1 ------- null}
- -t 1.35488 -s 0 -d 1 -p tcp -e 1040 -c 1 -i 80 -a 1 -x {0.0 1.0 25 ------- null}
h -t 1.35488 -s 0 -d 1 -p tcp -e 1040 -c 1 -i 80 -a 1 -x {0.0 1.0 -1 ------- null}
- -t 1.35488 -s 1 -d 2 -p tcp -e 1040 -c 2 -i 82 -a 2 -x {1.1 2.0 25 ------- null}
h -t 1.35488 -s 1 -d 2 -p tcp -e 1040 -c 2 -i 82 -a 2 -x {1.1 2.0 -1 ------- null}
- -t 1.35904 -s 0 -d 1 -p tcp -e 1040 -c 1 -i 81 -a 1 -x {0.0 1.0 26 ------- null}
h -t 1.35904 -s 0 -d 1 -p tcp -e 1040 -c 1 -i 81 -a 1 -x {0.0 1.0 -1 ------- null}
- -t 1.35904 -s 1 -d 2 -p tcp -e 1040 -c 2 -i 83 -a 2 -x {1.1 2.0 26 ------- null}
h -t 1.35904 -s 1 -d 2 -p tcp -e 1040 -c 2 -i 83 -a 2 -x {1.1 2.0 -1 ------- null}
- -t 1.3632 -s 0 -d 1 -p tcp -e 1040 -c 1 -i 84 -a 1 -x {0.0 1.0 27 ------- null}
h -t 1.3632 -s 0 -d 1 -p tcp -e 1040 -c 1 -i 84 -a 1 -x {0.0 1.0 -1 ------- null}
- -t 1.3632 -s 1 -d 2 -p tcp -e 1040 -c 2 -i 86 -a 2 -x {1.1 2.0 27 ------- null}
h -t 1.3632 -s 1 -d 2 -p tcp -e 1040 -c 2 -i 86 -a 2 -x {1.1 2.0 -1 ------- null}
- -t 1.36736 -s 0 -d 1 -p tcp -e 1040 -c 1 -i 85 -a 1 -x {0.0 1.0 28 ------- null}
h -t 1.36736 -s 0 -d 1 -p tcp -e 1040 -c 1 -i 85 -a 1 -x {0.0 1.0 -1 ------- null}
- -t 1.36736 -s 1 -d 2 -p tcp -e 1040 -c 2 -i 87 -a 2 -x {1.1 2.0 28 ------- null}
h -t 1.36736 -s 1 -d 2 -p tcp -e 1040 -c 2 -i 87 -a 2 -x {1.1 2.0 -1 ------- null}
- -t 1.37152 -s 0 -d 1 -p tcp -e 1040 -c 1 -i 88 -a 1 -x {0.0 1.0 29 ------- null}
h -t 1.37152 -s 0 -d 1 -p tcp -e 1040 -c 1 -i 88 -a 1 -x {0.0 1.0 -1 ------- null}
- -t 1.37152 -s 1 -d 2 -p tcp -e 1040 -c 2 -i 90 -a 2 -x {1.1 2.0 29 ------- null}
h -t 1.37152 -s 1 -d 2 -p tcp -e 1040 -c 2 -i 90 -a 2 -x {1.1 2.0 -1 ------- null}
- -t 1.37568 -s 0 -d 1 -p tcp -e 1040 -c 1 -i 89 -a 1 -x {0.0 1.0 30 ------- null}
h -t 1.37568 -s 0 -d 1 -p tcp -e 1040 -c 1 -i 89 -a 1 -x {0.0 1.0 -1 ------- null}
- -t 1.37568 -s 1 -d 2 -p tcp -e 1040 -c 2 -i 91 -a 2 -x {1.1 2.0 30 ------- null}
h -t 1.37568 -s 1 -d 2 -p tcp -e 1040 -c 2 -i 91 -a 2 -x {1.1 2.0 -1 ------- null}
r -t 1.41744 -s 0 -d 1 -p tcp -e 1040 -c 1 -i 60 -a 1 -x {0.0 1.0 15 ------- null}
+ -t 1.41744 -s 1 -d 0 -p ack -e 40 -c 1 -i 92 -a 1 -x {1.0 0.0 15 ------- null}
- -t 1.41744 -s 1 -d 0 -p ack -e 40 -c 1 -i 92 -a 1 -x {1.0 0.0 15 ------- null}
h -t 1.41744 -s 1 -d 0 -p ack -e 40 -c 1 -i 92 -a 1 -x {1.0 0.0 -1 ------- null}
r -t 1.41744 -s 1 -d 2 -p tcp -e 1040 -c 2 -i 62 -a 2 -x {1.1 2.0 15 ------- null}
+ -t 1.41744 -s 2 -d 1 -p ack -e 40 -c 2 -i 93 -a 2 -x {2.0 1.1 15 ------- null}
- -t 1.41744 -s 2 -d 1 -p ack -e 40 -c 2 -i 93 -a 2 -x {2.0 1.1 15 ------- null}
h -t 1.41744 -s 2 -d 1 -p ack -e 40 -c 2 -i 93 -a 2 -x {2.0 1.1 -1 ------- null}
r -t 1.4216 -s 0 -d 1 -p tcp -e 1040 -c 1 -i 61 -a 1 -x {0.0 1.0 16 ------- null}
+ -t 1.4216 -s 1 -d 0 -p ack -e 40 -c 1 -i 94 -a 1 -x {1.0 0.0 16 ------- null}
- -t 1.4216 -s 1 -d 0 -p ack -e 40 -c 1 -i 94 -a 1 -x {1.0 0.0 16 ------- null}
h -t 1.4216 -s 1 -d 0 -p ack -e 40 -c 1 -i 94 -a 1 -x {1.0 0.0 -1 ------- null}
r -t 1.4216 -s 1 -d 2 -p tcp -e 1040 -c 2 -i 63 -a 2 -x {1.1 2.0 16 ------- null}
+ -t 1.4216 -s 2 -d 1 -p ack -e 40 -c 2 -i 95 -a 2 -x {2.0 1.1 16 ------- null}
- -t 1.4216 -s 2 -d 1 -p ack -e 40 -c 2 -i 95 -a 2 -x {2.0 1.1 16 ------- null}
h -t 1.4216 -s 2 -d 1 -p ack -e 40 -c 2 -i 95 -a 2 -x {2.0 1.1 -1 ------- null}
r -t 1.42576 -s 0 -d 1 -p tcp -e 1040 -c 1 -i 64 -a 1 -x {0.0 1.0 17 ------- null}
+ -t 1.42576 -s 1 -d 0 -p ack -e 40 -c 1 -i 96 -a 1 -x {1.0 0.0 17 ------- null}
- -t 1.42576 -s 1 -d 0 -p ack -e 40 -c 1 -i 96 -a 1 -x {1.0 0.0 17 ------- null}
h -t 1.42576 -s 1 -d 0 -p ack -e 40 -c 1 -i 96 -a 1 -x {1.0 0.0 -1 ------- null}
r -t 1.42576 -s 1 -d 2 -p tcp -e 1040 -c 2 -i 66 -a 2 -x {1.1 2.0 17 ------- null}
+ -t 1.42576 -s 2 -d 1 -p ack -e 40 -c 2 -i 97 -a 2 -x {2.0 1.1 17 ------- null}
- -t 1.42576 -s 2 -d 1 -p ack -e 40 -c 2 -i 97 -a 2 -x {2.0 1.1 17 ------- null}
h -t 1.42576 -s 2 -d 1 -p ack -e 40 -c 2 -i 97 -a 2 -x {2.0 1.1 -1 ------- null}
r -t 1.42992 -s 0 -d 1 -p tcp -e 1040 -c 1 -i 65 -a 1 -x {0.0 1.0 18 ------- null}